# vtk DataFile Version 2.0
Volume example
ASCII
DATASET STRUCTURED_POINTS
DIMENSIONS 16 8 1
ASPECT_RATIO 1 1 1
ORIGIN 0 0 0
POINT_DATA 128
SCALARS volume_scalars float 1
LOOKUP_TABLE default
  4.88414317E-02  0.26718283      0.63963062      0.71926761      0.38012514      9.44145769E-02  1.10212220E-02  6.04642730E-04  1.55907201E-05  1.94577296E-07  2.13355307E-08 -2.50101966E-08 -6.31644994E-08 -6.74427056E-08 -1.06775886E-08  1.75443287E-08  4.88414317E-02  0.26718283      0.63963062      0.71926761      0.38012514      9.44145769E-02  1.10212220E-02  6.04642730E-04  1.55907201E-05  1.94577296E-07  2.13355307E-08 -2.50101966E-08 -6.31644994E-08 -6.74427056E-08 -1.06775886E-08  1.75443287E-08  4.88414317E-02  0.26718283      0.63963062      0.71926761      0.38012514      9.44145769E-02  1.10212220E-02  6.04642730E-04  1.55907201E-05  1.94577296E-07  2.13355307E-08 -2.50101966E-08 -6.31644994E-08 -6.74427056E-08 -1.06775886E-08  1.75443287E-08  4.88414317E-02  0.26718283      0.63963062      0.71926761      0.38012514      9.44145769E-02  1.10212220E-02  6.04642730E-04  1.55907201E-05  1.94577296E-07  2.13355307E-08 -2.50101966E-08 -6.31644994E-08 -6.74427056E-08 -1.06775886E-08  1.75443287E-08  4.88414317E-02  0.26718283      0.63963062      0.71926761      0.38012514      9.44145769E-02  1.10212220E-02  6.04642730E-04  1.55907201E-05  1.94577296E-07  2.13355307E-08 -2.50101966E-08 -6.31644994E-08 -6.74427056E-08 -1.06775886E-08  1.75443287E-08  4.88414317E-02  0.26718283      0.63963062      0.71926761      0.38012514      9.44145769E-02  1.10212220E-02  6.04642730E-04  1.55907201E-05  1.94577296E-07  2.13355307E-08 -2.50101966E-08 -6.31644994E-08 -6.74427056E-08 -1.06775886E-08  1.75443287E-08  4.88414317E-02  0.26718283      0.63963062      0.71926761      0.38012514      9.44145769E-02  1.10212220E-02  6.04642730E-04  1.55907201E-05  1.94577296E-07  2.13355307E-08 -2.50101966E-08 -6.31644994E-08 -6.74427056E-08 -1.06775886E-08  1.75443287E-08  4.88414317E-02  0.26718283      0.63963062      0.71926761      0.38012514      9.44145769E-02  1.10212220E-02  6.04642730E-04  1.55907201E-05  1.94577296E-07  2.13355307E-08 -2.50101966E-08 -6.31644994E-08 -6.74427056E-08 -1.06775886E-08  1.75443287E-08
