# vtk DataFile Version 2.0
Volume example
ASCII
DATASET STRUCTURED_POINTS
DIMENSIONS 16 8 1
ASPECT_RATIO 1 1 1
ORIGIN 0 0 0
POINT_DATA 128
SCALARS volume_scalars float 1
LOOKUP_TABLE default
 -3.66858975E-03 -1.47603074E-04 -2.68776489E-06  1.01079884E-07  5.43619834E-08  8.01604898E-08  1.74628852E-07  9.15412599E-08 -5.76387960E-09  3.64757757E-09  7.73220677E-07  4.79031587E-05  1.49640930E-03  2.19847951E-02  0.15179804      0.49259195     -3.66858975E-03 -1.47603074E-04 -2.68776489E-06  1.01079884E-07  5.43619834E-08  8.01604898E-08  1.74628852E-07  9.15412599E-08 -5.76387960E-09  3.64757757E-09  7.73220677E-07  4.79031587E-05  1.49640930E-03  2.19847951E-02  0.15179804      0.49259195     -3.66858975E-03 -1.47603074E-04 -2.68776489E-06  1.01079884E-07  5.43619834E-08  8.01604898E-08  1.74628852E-07  9.15412599E-08 -5.76387960E-09  3.64757757E-09  7.73220677E-07  4.79031587E-05  1.49640930E-03  2.19847951E-02  0.15179804      0.49259195     -3.66858975E-03 -1.47603074E-04 -2.68776489E-06  1.01079884E-07  5.43619834E-08  8.01604898E-08  1.74628852E-07  9.15412599E-08 -5.76387960E-09  3.64757757E-09  7.73220677E-07  4.79031587E-05  1.49640930E-03  2.19847951E-02  0.15179804      0.49259195     -3.66858975E-03 -1.47603074E-04 -2.68776489E-06  1.01079884E-07  5.43619834E-08  8.01604898E-08  1.74628852E-07  9.15412599E-08 -5.76387960E-09  3.64757757E-09  7.73220677E-07  4.79031587E-05  1.49640930E-03  2.19847951E-02  0.15179804      0.49259195     -3.66858975E-03 -1.47603074E-04 -2.68776489E-06  1.01079884E-07  5.43619834E-08  8.01604898E-08  1.74628852E-07  9.15412599E-08 -5.76387960E-09  3.64757757E-09  7.73220677E-07  4.79031587E-05  1.49640930E-03  2.19847951E-02  0.15179804      0.49259195     -3.66858975E-03 -1.47603074E-04 -2.68776489E-06  1.01079884E-07  5.43619834E-08  8.01604898E-08  1.74628852E-07  9.15412599E-08 -5.76387960E-09  3.64757757E-09  7.73220677E-07  4.79031587E-05  1.49640930E-03  2.19847951E-02  0.15179804      0.49259195     -3.66858975E-03 -1.47603074E-04 -2.68776489E-06  1.01079884E-07  5.43619834E-08  8.01604898E-08  1.74628852E-07  9.15412599E-08 -5.76387960E-09  3.64757757E-09  7.73220677E-07  4.79031587E-05  1.49640930E-03  2.19847951E-02  0.15179804      0.49259195    
