# vtk DataFile Version 2.0
Volume example
ASCII
DATASET STRUCTURED_POINTS
DIMENSIONS 16 8 1
ASPECT_RATIO 1 1 1
ORIGIN 0 0 0
POINT_DATA 128
SCALARS volume_scalars float 1
LOOKUP_TABLE default
 -3.66240367E-03  1.36291666E-04  6.12916984E-03  6.22396506E-02  0.29690158      0.66563231      0.70134670      0.34730229      8.08276013E-02  8.84071738E-03  4.54434252E-04  1.09499197E-05  1.13014266E-07  7.45906448E-09 -6.58471144E-09 -1.55915370E-08 -3.66240367E-03  1.36291666E-04  6.12916984E-03  6.22396506E-02  0.29690158      0.66563231      0.70134670      0.34730229      8.08276013E-02  8.84071738E-03  4.54434252E-04  1.09499197E-05  1.13014266E-07  7.45906448E-09 -6.58471144E-09 -1.55915370E-08 -3.66240367E-03  1.36291666E-04  6.12916984E-03  6.22396506E-02  0.29690158      0.66563231      0.70134670      0.34730229      8.08276013E-02  8.84071738E-03  4.54434252E-04  1.09499197E-05  1.13014266E-07  7.45906448E-09 -6.58471144E-09 -1.55915370E-08 -3.66240367E-03  1.36291666E-04  6.12916984E-03  6.22396506E-02  0.29690158      0.66563231      0.70134670      0.34730229      8.08276013E-02  8.84071738E-03  4.54434252E-04  1.09499197E-05  1.13014266E-07  7.45906448E-09 -6.58471144E-09 -1.55915370E-08 -3.66240367E-03  1.36291666E-04  6.12916984E-03  6.22396506E-02  0.29690158      0.66563231      0.70134670      0.34730229      8.08276013E-02  8.84071738E-03  4.54434252E-04  1.09499197E-05  1.13014266E-07  7.45906448E-09 -6.58471144E-09 -1.55915370E-08 -3.66240367E-03  1.36291666E-04  6.12916984E-03  6.22396506E-02  0.29690158      0.66563231      0.70134670      0.34730229      8.08276013E-02  8.84071738E-03  4.54434252E-04  1.09499197E-05  1.13014266E-07  7.45906448E-09 -6.58471144E-09 -1.55915370E-08 -3.66240367E-03  1.36291666E-04  6.12916984E-03  6.22396506E-02  0.29690158      0.66563231      0.70134670      0.34730229      8.08276013E-02  8.84071738E-03  4.54434252E-04  1.09499197E-05  1.13014266E-07  7.45906448E-09 -6.58471144E-09 -1.55915370E-08 -3.66240367E-03  1.36291666E-04  6.12916984E-03  6.22396506E-02  0.29690158      0.66563231      0.70134670      0.34730229      8.08276013E-02  8.84071738E-03  4.54434252E-04  1.09499197E-05  1.13014266E-07  7.45906448E-09 -6.58471144E-09 -1.55915370E-08
