# vtk DataFile Version 2.0
Volume example
ASCII
DATASET STRUCTURED_POINTS
DIMENSIONS 16 8 1
ASPECT_RATIO 1 1 1
ORIGIN 0 0 0
POINT_DATA 128
SCALARS volume_scalars float 1
LOOKUP_TABLE default
 -3.66853736E-03 -1.47598403E-04 -2.72573948E-06  5.70719259E-08 -3.98885619E-10 -2.22259917E-08  7.00005103E-08  6.39933296E-06  2.90723488E-04  6.24581752E-03  6.30689934E-02  0.29930896      0.66757458      0.69977164      0.34473863      7.98178166E-02 -3.66853736E-03 -1.47598403E-04 -2.72573948E-06  5.70719259E-08 -3.98885619E-10 -2.22259917E-08  7.00005103E-08  6.39933296E-06  2.90723488E-04  6.24581752E-03  6.30689934E-02  0.29930896      0.66757458      0.69977164      0.34473863      7.98178166E-02 -3.66853736E-03 -1.47598403E-04 -2.72573948E-06  5.70719259E-08 -3.98885619E-10 -2.22259917E-08  7.00005103E-08  6.39933296E-06  2.90723488E-04  6.24581752E-03  6.30689934E-02  0.29930896      0.66757458      0.69977164      0.34473863      7.98178166E-02 -3.66853736E-03 -1.47598403E-04 -2.72573948E-06  5.70719259E-08 -3.98885619E-10 -2.22259917E-08  7.00005103E-08  6.39933296E-06  2.90723488E-04  6.24581752E-03  6.30689934E-02  0.29930896      0.66757458      0.69977164      0.34473863      7.98178166E-02 -3.66853736E-03 -1.47598403E-04 -2.72573948E-06  5.70719259E-08 -3.98885619E-10 -2.22259917E-08  7.00005103E-08  6.39933296E-06  2.90723488E-04  6.24581752E-03  6.30689934E-02  0.29930896      0.66757458      0.69977164      0.34473863      7.98178166E-02 -3.66853736E-03 -1.47598403E-04 -2.72573948E-06  5.70719259E-08 -3.98885619E-10 -2.22259917E-08  7.00005103E-08  6.39933296E-06  2.90723488E-04  6.24581752E-03  6.30689934E-02  0.29930896      0.66757458      0.69977164      0.34473863      7.98178166E-02 -3.66853736E-03 -1.47598403E-04 -2.72573948E-06  5.70719259E-08 -3.98885619E-10 -2.22259917E-08  7.00005103E-08  6.39933296E-06  2.90723488E-04  6.24581752E-03  6.30689934E-02  0.29930896      0.66757458      0.69977164      0.34473863      7.98178166E-02 -3.66853736E-03 -1.47598403E-04 -2.72573948E-06  5.70719259E-08 -3.98885619E-10 -2.22259917E-08  7.00005103E-08  6.39933296E-06  2.90723488E-04  6.24581752E-03  6.30689934E-02  0.29930896      0.66757458      0.69977164      0.34473863      7.98178166E-02
