# vtk DataFile Version 2.0
Volume example
ASCII
DATASET STRUCTURED_POINTS
DIMENSIONS 16 8 1
ASPECT_RATIO 1 1 1
ORIGIN 0 0 0
POINT_DATA 128
SCALARS volume_scalars float 1
LOOKUP_TABLE default
  1.31737897E-02  9.04788496E-04  2.81136599E-05  4.09011363E-07  1.83549786E-09  1.46680019E-08  8.13822076E-09 -2.03973993E-08  1.50394908E-09 -8.40128730E-11  7.42785389E-09  1.92160350E-08  2.07215889E-09  2.82894952E-09  1.68017369E-08  1.82542994E-08  1.31737897E-02  9.04788496E-04  2.81136599E-05  4.09011363E-07  1.83549786E-09  1.46680019E-08  8.13822076E-09 -2.03973993E-08  1.50394908E-09 -8.40128730E-11  7.42785389E-09  1.92160350E-08  2.07215889E-09  2.82894952E-09  1.68017369E-08  1.82542994E-08  1.31737897E-02  9.04788496E-04  2.81136599E-05  4.09011363E-07  1.83549786E-09  1.46680019E-08  8.13822076E-09 -2.03973993E-08  1.50394908E-09 -8.40128730E-11  7.42785389E-09  1.92160350E-08  2.07215889E-09  2.82894952E-09  1.68017369E-08  1.82542994E-08  1.31737897E-02  9.04788496E-04  2.81136599E-05  4.09011363E-07  1.83549786E-09  1.46680019E-08  8.13822076E-09 -2.03973993E-08  1.50394908E-09 -8.40128730E-11  7.42785389E-09  1.92160350E-08  2.07215889E-09  2.82894952E-09  1.68017369E-08  1.82542994E-08  1.31737897E-02  9.04788496E-04  2.81136599E-05  4.09011363E-07  1.83549786E-09  1.46680019E-08  8.13822076E-09 -2.03973993E-08  1.50394908E-09 -8.40128730E-11  7.42785389E-09  1.92160350E-08  2.07215889E-09  2.82894952E-09  1.68017369E-08  1.82542994E-08  1.31737897E-02  9.04788496E-04  2.81136599E-05  4.09011363E-07  1.83549786E-09  1.46680019E-08  8.13822076E-09 -2.03973993E-08  1.50394908E-09 -8.40128730E-11  7.42785389E-09  1.92160350E-08  2.07215889E-09  2.82894952E-09  1.68017369E-08  1.82542994E-08  1.31737897E-02  9.04788496E-04  2.81136599E-05  4.09011363E-07  1.83549786E-09  1.46680019E-08  8.13822076E-09 -2.03973993E-08  1.50394908E-09 -8.40128730E-11  7.42785389E-09  1.92160350E-08  2.07215889E-09  2.82894952E-09  1.68017369E-08  1.82542994E-08  1.31737897E-02  9.04788496E-04  2.81136599E-05  4.09011363E-07  1.83549786E-09  1.46680019E-08  8.13822076E-09 -2.03973993E-08  1.50394908E-09 -8.40128730E-11  7.42785389E-09  1.92160350E-08  2.07215889E-09  2.82894952E-09  1.68017369E-08  1.82542994E-08
