# vtk DataFile Version 2.0
Volume example
ASCII
DATASET STRUCTURED_POINTS
DIMENSIONS 16 8 1
ASPECT_RATIO 1 1 1
ORIGIN 0 0 0
POINT_DATA 128
SCALARS volume_scalars float 1
LOOKUP_TABLE default
 -3.66864004E-03 -1.47664527E-04 -2.76713058E-06  3.32953682E-08  8.71858674E-08  1.10530010E-07  7.70490018E-08  1.13411282E-07  1.02853285E-07 -2.97761780E-08 -6.08560242E-08  3.29045150E-07  2.51755591E-05  8.91714124E-04  1.48452371E-02  0.11614819     -3.66864004E-03 -1.47664527E-04 -2.76713058E-06  3.32953682E-08  8.71858674E-08  1.10530010E-07  7.70490018E-08  1.13411282E-07  1.02853285E-07 -2.97761780E-08 -6.08560242E-08  3.29045150E-07  2.51755591E-05  8.91714124E-04  1.48452371E-02  0.11614819     -3.66864004E-03 -1.47664527E-04 -2.76713058E-06  3.32953682E-08  8.71858674E-08  1.10530010E-07  7.70490018E-08  1.13411282E-07  1.02853285E-07 -2.97761780E-08 -6.08560242E-08  3.29045150E-07  2.51755591E-05  8.91714124E-04  1.48452371E-02  0.11614819     -3.66864004E-03 -1.47664527E-04 -2.76713058E-06  3.32953682E-08  8.71858674E-08  1.10530010E-07  7.70490018E-08  1.13411282E-07  1.02853285E-07 -2.97761780E-08 -6.08560242E-08  3.29045150E-07  2.51755591E-05  8.91714124E-04  1.48452371E-02  0.11614819     -3.66864004E-03 -1.47664527E-04 -2.76713058E-06  3.32953682E-08  8.71858674E-08  1.10530010E-07  7.70490018E-08  1.13411282E-07  1.02853285E-07 -2.97761780E-08 -6.08560242E-08  3.29045150E-07  2.51755591E-05  8.91714124E-04  1.48452371E-02  0.11614819     -3.66864004E-03 -1.47664527E-04 -2.76713058E-06  3.32953682E-08  8.71858674E-08  1.10530010E-07  7.70490018E-08  1.13411282E-07  1.02853285E-07 -2.97761780E-08 -6.08560242E-08  3.29045150E-07  2.51755591E-05  8.91714124E-04  1.48452371E-02  0.11614819     -3.66864004E-03 -1.47664527E-04 -2.76713058E-06  3.32953682E-08  8.71858674E-08  1.10530010E-07  7.70490018E-08  1.13411282E-07  1.02853285E-07 -2.97761780E-08 -6.08560242E-08  3.29045150E-07  2.51755591E-05  8.91714124E-04  1.48452371E-02  0.11614819     -3.66864004E-03 -1.47664527E-04 -2.76713058E-06  3.32953682E-08  8.71858674E-08  1.10530010E-07  7.70490018E-08  1.13411282E-07  1.02853285E-07 -2.97761780E-08 -6.08560242E-08  3.29045150E-07  2.51755591E-05  8.91714124E-04  1.48452371E-02  0.11614819    
