# vtk DataFile Version 2.0
Volume example
ASCII
DATASET STRUCTURED_POINTS
DIMENSIONS 16 8 1
ASPECT_RATIO 1 1 1
ORIGIN 0 0 0
POINT_DATA 128
SCALARS volume_scalars float 1
LOOKUP_TABLE default
 -3.66860186E-03 -1.47614235E-04 -1.27601436E-06  8.69149735E-05  2.41073454E-03  3.14182229E-02  0.19243608      0.55394793      0.74942434      0.47650039      0.14238878      1.99969597E-02  1.31983694E-03  4.09033382E-05  5.82938867E-07  6.52943157E-08 -3.66860186E-03 -1.47614235E-04 -1.27601436E-06  8.69149735E-05  2.41073454E-03  3.14182229E-02  0.19243608      0.55394793      0.74942434      0.47650039      0.14238878      1.99969597E-02  1.31983694E-03  4.09033382E-05  5.82938867E-07  6.52943157E-08 -3.66860186E-03 -1.47614235E-04 -1.27601436E-06  8.69149735E-05  2.41073454E-03  3.14182229E-02  0.19243608      0.55394793      0.74942434      0.47650039      0.14238878      1.99969597E-02  1.31983694E-03  4.09033382E-05  5.82938867E-07  6.52943157E-08 -3.66860186E-03 -1.47614235E-04 -1.27601436E-06  8.69149735E-05  2.41073454E-03  3.14182229E-02  0.19243608      0.55394793      0.74942434      0.47650039      0.14238878      1.99969597E-02  1.31983694E-03  4.09033382E-05  5.82938867E-07  6.52943157E-08 -3.66860186E-03 -1.47614235E-04 -1.27601436E-06  8.69149735E-05  2.41073454E-03  3.14182229E-02  0.19243608      0.55394793      0.74942434      0.47650039      0.14238878      1.99969597E-02  1.31983694E-03  4.09033382E-05  5.82938867E-07  6.52943157E-08 -3.66860186E-03 -1.47614235E-04 -1.27601436E-06  8.69149735E-05  2.41073454E-03  3.14182229E-02  0.19243608      0.55394793      0.74942434      0.47650039      0.14238878      1.99969597E-02  1.31983694E-03  4.09033382E-05  5.82938867E-07  6.52943157E-08 -3.66860186E-03 -1.47614235E-04 -1.27601436E-06  8.69149735E-05  2.41073454E-03  3.14182229E-02  0.19243608      0.55394793      0.74942434      0.47650039      0.14238878      1.99969597E-02  1.31983694E-03  4.09033382E-05  5.82938867E-07  6.52943157E-08 -3.66860186E-03 -1.47614235E-04 -1.27601436E-06  8.69149735E-05  2.41073454E-03  3.14182229E-02  0.19243608      0.55394793      0.74942434      0.47650039      0.14238878      1.99969597E-02  1.31983694E-03  4.09033382E-05  5.82938867E-07  6.52943157E-08
