# vtk DataFile Version 2.0
Volume example
ASCII
DATASET STRUCTURED_POINTS
DIMENSIONS 16 8 1
ASPECT_RATIO 1 1 1
ORIGIN 0 0 0
POINT_DATA 128
SCALARS volume_scalars float 1
LOOKUP_TABLE default
 -3.66810104E-03 -1.14163180E-04  1.11882028E-03  1.76766962E-02  0.13093272      0.45579755      0.74571347      0.57338822      0.20720607      3.51910442E-02  2.80889217E-03  1.05337567E-04  1.82745543E-06  1.18605765E-08  1.64928800E-08  7.22312266E-10 -3.66810104E-03 -1.14163180E-04  1.11882028E-03  1.76766962E-02  0.13093272      0.45579755      0.74571347      0.57338822      0.20720607      3.51910442E-02  2.80889217E-03  1.05337567E-04  1.82745543E-06  1.18605765E-08  1.64928800E-08  7.22312266E-10 -3.66810104E-03 -1.14163180E-04  1.11882028E-03  1.76766962E-02  0.13093272      0.45579755      0.74571347      0.57338822      0.20720607      3.51910442E-02  2.80889217E-03  1.05337567E-04  1.82745543E-06  1.18605765E-08  1.64928800E-08  7.22312266E-10 -3.66810104E-03 -1.14163180E-04  1.11882028E-03  1.76766962E-02  0.13093272      0.45579755      0.74571347      0.57338822      0.20720607      3.51910442E-02  2.80889217E-03  1.05337567E-04  1.82745543E-06  1.18605765E-08  1.64928800E-08  7.22312266E-10 -3.66810104E-03 -1.14163180E-04  1.11882028E-03  1.76766962E-02  0.13093272      0.45579755      0.74571347      0.57338822      0.20720607      3.51910442E-02  2.80889217E-03  1.05337567E-04  1.82745543E-06  1.18605765E-08  1.64928800E-08  7.22312266E-10 -3.66810104E-03 -1.14163180E-04  1.11882028E-03  1.76766962E-02  0.13093272      0.45579755      0.74571347      0.57338822      0.20720607      3.51910442E-02  2.80889217E-03  1.05337567E-04  1.82745543E-06  1.18605765E-08  1.64928800E-08  7.22312266E-10 -3.66810104E-03 -1.14163180E-04  1.11882028E-03  1.76766962E-02  0.13093272      0.45579755      0.74571347      0.57338822      0.20720607      3.51910442E-02  2.80889217E-03  1.05337567E-04  1.82745543E-06  1.18605765E-08  1.64928800E-08  7.22312266E-10 -3.66810104E-03 -1.14163180E-04  1.11882028E-03  1.76766962E-02  0.13093272      0.45579755      0.74571347      0.57338822      0.20720607      3.51910442E-02  2.80889217E-03  1.05337567E-04  1.82745543E-06  1.18605765E-08  1.64928800E-08  7.22312266E-10
