# vtk DataFile Version 2.0
Volume example
ASCII
DATASET STRUCTURED_POINTS
DIMENSIONS 16 8 1
ASPECT_RATIO 1 1 1
ORIGIN 0 0 0
POINT_DATA 128
SCALARS volume_scalars float 1
LOOKUP_TABLE default
 -3.66853853E-03 -1.47556493E-04 -2.68932058E-06  1.08531935E-07  2.19059846E-08  8.84350015E-08  1.45988039E-07  2.78184729E-08  1.10816223E-09  1.12271181E-07  9.13053373E-06  3.90087982E-04  7.85318203E-03  7.43040442E-02  0.33041114      0.69051635     -3.66853853E-03 -1.47556493E-04 -2.68932058E-06  1.08531935E-07  2.19059846E-08  8.84350015E-08  1.45988039E-07  2.78184729E-08  1.10816223E-09  1.12271181E-07  9.13053373E-06  3.90087982E-04  7.85318203E-03  7.43040442E-02  0.33041114      0.69051635     -3.66853853E-03 -1.47556493E-04 -2.68932058E-06  1.08531935E-07  2.19059846E-08  8.84350015E-08  1.45988039E-07  2.78184729E-08  1.10816223E-09  1.12271181E-07  9.13053373E-06  3.90087982E-04  7.85318203E-03  7.43040442E-02  0.33041114      0.69051635     -3.66853853E-03 -1.47556493E-04 -2.68932058E-06  1.08531935E-07  2.19059846E-08  8.84350015E-08  1.45988039E-07  2.78184729E-08  1.10816223E-09  1.12271181E-07  9.13053373E-06  3.90087982E-04  7.85318203E-03  7.43040442E-02  0.33041114      0.69051635     -3.66853853E-03 -1.47556493E-04 -2.68932058E-06  1.08531935E-07  2.19059846E-08  8.84350015E-08  1.45988039E-07  2.78184729E-08  1.10816223E-09  1.12271181E-07  9.13053373E-06  3.90087982E-04  7.85318203E-03  7.43040442E-02  0.33041114      0.69051635     -3.66853853E-03 -1.47556493E-04 -2.68932058E-06  1.08531935E-07  2.19059846E-08  8.84350015E-08  1.45988039E-07  2.78184729E-08  1.10816223E-09  1.12271181E-07  9.13053373E-06  3.90087982E-04  7.85318203E-03  7.43040442E-02  0.33041114      0.69051635     -3.66853853E-03 -1.47556493E-04 -2.68932058E-06  1.08531935E-07  2.19059846E-08  8.84350015E-08  1.45988039E-07  2.78184729E-08  1.10816223E-09  1.12271181E-07  9.13053373E-06  3.90087982E-04  7.85318203E-03  7.43040442E-02  0.33041114      0.69051635     -3.66853853E-03 -1.47556493E-04 -2.68932058E-06  1.08531935E-07  2.19059846E-08  8.84350015E-08  1.45988039E-07  2.78184729E-08  1.10816223E-09  1.12271181E-07  9.13053373E-06  3.90087982E-04  7.85318203E-03  7.43040442E-02  0.33041114      0.69051635    
