# vtk DataFile Version 2.0
Volume example
ASCII
DATASET STRUCTURED_POINTS
DIMENSIONS 16 8 1
ASPECT_RATIO 1 1 1
ORIGIN 0 0 0
POINT_DATA 128
SCALARS volume_scalars float 1
LOOKUP_TABLE default
 -3.66849289E-03 -1.44540842E-04  1.55974878E-04  3.88476369E-03  4.46803458E-02  0.24151406      0.61354172      0.73252547      0.41103435      0.10839511      1.34343971E-02  7.82510440E-04  2.13792409E-05  2.63482974E-07  2.83223951E-08  3.75681033E-08 -3.66849289E-03 -1.44540842E-04  1.55974878E-04  3.88476369E-03  4.46803458E-02  0.24151406      0.61354172      0.73252547      0.41103435      0.10839511      1.34343971E-02  7.82510440E-04  2.13792409E-05  2.63482974E-07  2.83223951E-08  3.75681033E-08 -3.66849289E-03 -1.44540842E-04  1.55974878E-04  3.88476369E-03  4.46803458E-02  0.24151406      0.61354172      0.73252547      0.41103435      0.10839511      1.34343971E-02  7.82510440E-04  2.13792409E-05  2.63482974E-07  2.83223951E-08  3.75681033E-08 -3.66849289E-03 -1.44540842E-04  1.55974878E-04  3.88476369E-03  4.46803458E-02  0.24151406      0.61354172      0.73252547      0.41103435      0.10839511      1.34343971E-02  7.82510440E-04  2.13792409E-05  2.63482974E-07  2.83223951E-08  3.75681033E-08 -3.66849289E-03 -1.44540842E-04  1.55974878E-04  3.88476369E-03  4.46803458E-02  0.24151406      0.61354172      0.73252547      0.41103435      0.10839511      1.34343971E-02  7.82510440E-04  2.13792409E-05  2.63482974E-07  2.83223951E-08  3.75681033E-08 -3.66849289E-03 -1.44540842E-04  1.55974878E-04  3.88476369E-03  4.46803458E-02  0.24151406      0.61354172      0.73252547      0.41103435      0.10839511      1.34343971E-02  7.82510440E-04  2.13792409E-05  2.63482974E-07  2.83223951E-08  3.75681033E-08 -3.66849289E-03 -1.44540842E-04  1.55974878E-04  3.88476369E-03  4.46803458E-02  0.24151406      0.61354172      0.73252547      0.41103435      0.10839511      1.34343971E-02  7.82510440E-04  2.13792409E-05  2.63482974E-07  2.83223951E-08  3.75681033E-08 -3.66849289E-03 -1.44540842E-04  1.55974878E-04  3.88476369E-03  4.46803458E-02  0.24151406      0.61354172      0.73252547      0.41103435      0.10839511      1.34343971E-02  7.82510440E-04  2.13792409E-05  2.63482974E-07  2.83223951E-08  3.75681033E-08
