# vtk DataFile Version 2.0
Volume example
ASCII
DATASET STRUCTURED_POINTS
DIMENSIONS 16 8 1
ASPECT_RATIO 1 1 1
ORIGIN 0 0 0
POINT_DATA 128
SCALARS volume_scalars float 1
LOOKUP_TABLE default
 -3.66851990E-03 -1.47608560E-04 -2.76645983E-06  5.13375547E-08  4.43996032E-06  2.15465552E-04  4.93969396E-03  5.32334596E-02  0.26961774      0.64178520      0.71797162      0.37748659      9.32764336E-02  1.08322632E-02  5.91208693E-04  1.51865715E-05 -3.66851990E-03 -1.47608560E-04 -2.76645983E-06  5.13375547E-08  4.43996032E-06  2.15465552E-04  4.93969396E-03  5.32334596E-02  0.26961774      0.64178520      0.71797162      0.37748659      9.32764336E-02  1.08322632E-02  5.91208693E-04  1.51865715E-05 -3.66851990E-03 -1.47608560E-04 -2.76645983E-06  5.13375547E-08  4.43996032E-06  2.15465552E-04  4.93969396E-03  5.32334596E-02  0.26961774      0.64178520      0.71797162      0.37748659      9.32764336E-02  1.08322632E-02  5.91208693E-04  1.51865715E-05 -3.66851990E-03 -1.47608560E-04 -2.76645983E-06  5.13375547E-08  4.43996032E-06  2.15465552E-04  4.93969396E-03  5.32334596E-02  0.26961774      0.64178520      0.71797162      0.37748659      9.32764336E-02  1.08322632E-02  5.91208693E-04  1.51865715E-05 -3.66851990E-03 -1.47608560E-04 -2.76645983E-06  5.13375547E-08  4.43996032E-06  2.15465552E-04  4.93969396E-03  5.32334596E-02  0.26961774      0.64178520      0.71797162      0.37748659      9.32764336E-02  1.08322632E-02  5.91208693E-04  1.51865715E-05 -3.66851990E-03 -1.47608560E-04 -2.76645983E-06  5.13375547E-08  4.43996032E-06  2.15465552E-04  4.93969396E-03  5.32334596E-02  0.26961774      0.64178520      0.71797162      0.37748659      9.32764336E-02  1.08322632E-02  5.91208693E-04  1.51865715E-05 -3.66851990E-03 -1.47608560E-04 -2.76645983E-06  5.13375547E-08  4.43996032E-06  2.15465552E-04  4.93969396E-03  5.32334596E-02  0.26961774      0.64178520      0.71797162      0.37748659      9.32764336E-02  1.08322632E-02  5.91208693E-04  1.51865715E-05 -3.66851990E-03 -1.47608560E-04 -2.76645983E-06  5.13375547E-08  4.43996032E-06  2.15465552E-04  4.93969396E-03  5.32334596E-02  0.26961774      0.64178520      0.71797162      0.37748659      9.32764336E-02  1.08322632E-02  5.91208693E-04  1.51865715E-05
