# vtk DataFile Version 2.0
Volume example
ASCII
DATASET STRUCTURED_POINTS
DIMENSIONS 16 8 1
ASPECT_RATIO 1 1 1
ORIGIN 0 0 0
POINT_DATA 128
SCALARS volume_scalars float 1
LOOKUP_TABLE default
 -3.17115313E-03  9.33319051E-03  8.49218071E-02  0.35751826      0.70735878      0.65774530      0.28744364      5.90369329E-02  5.69865433E-03  2.58504821E-04  5.49025708E-06  4.47450503E-08  1.21721264E-08 -3.94844477E-08 -5.98395644E-08 -1.26803168E-09 -3.17115313E-03  9.33319051E-03  8.49218071E-02  0.35751826      0.70735878      0.65774530      0.28744364      5.90369329E-02  5.69865433E-03  2.58504821E-04  5.49025708E-06  4.47450503E-08  1.21721264E-08 -3.94844477E-08 -5.98395644E-08 -1.26803168E-09 -3.17115313E-03  9.33319051E-03  8.49218071E-02  0.35751826      0.70735878      0.65774530      0.28744364      5.90369329E-02  5.69865433E-03  2.58504821E-04  5.49025708E-06  4.47450503E-08  1.21721264E-08 -3.94844477E-08 -5.98395644E-08 -1.26803168E-09 -3.17115313E-03  9.33319051E-03  8.49218071E-02  0.35751826      0.70735878      0.65774530      0.28744364      5.90369329E-02  5.69865433E-03  2.58504821E-04  5.49025708E-06  4.47450503E-08  1.21721264E-08 -3.94844477E-08 -5.98395644E-08 -1.26803168E-09 -3.17115313E-03  9.33319051E-03  8.49218071E-02  0.35751826      0.70735878      0.65774530      0.28744364      5.90369329E-02  5.69865433E-03  2.58504821E-04  5.49025708E-06  4.47450503E-08  1.21721264E-08 -3.94844477E-08 -5.98395644E-08 -1.26803168E-09 -3.17115313E-03  9.33319051E-03  8.49218071E-02  0.35751826      0.70735878      0.65774530      0.28744364      5.90369329E-02  5.69865433E-03  2.58504821E-04  5.49025708E-06  4.47450503E-08  1.21721264E-08 -3.94844477E-08 -5.98395644E-08 -1.26803168E-09 -3.17115313E-03  9.33319051E-03  8.49218071E-02  0.35751826      0.70735878      0.65774530      0.28744364      5.90369329E-02  5.69865433E-03  2.58504821E-04  5.49025708E-06  4.47450503E-08  1.21721264E-08 -3.94844477E-08 -5.98395644E-08 -1.26803168E-09 -3.17115313E-03  9.33319051E-03  8.49218071E-02  0.35751826      0.70735878      0.65774530      0.28744364      5.90369329E-02  5.69865433E-03  2.58504821E-04  5.49025708E-06  4.47450503E-08  1.21721264E-08 -3.94844477E-08 -5.98395644E-08 -1.26803168E-09
