# vtk DataFile Version 2.0
Volume example
ASCII
DATASET STRUCTURED_POINTS
DIMENSIONS 16 8 1
ASPECT_RATIO 1 1 1
ORIGIN 0 0 0
POINT_DATA 128
SCALARS volume_scalars float 1
LOOKUP_TABLE default
 -3.66846169E-03 -1.47438084E-04 -2.70464352E-06  7.29698035E-09  5.66770382E-08  9.12314917E-08  4.66328665E-08 -5.64849112E-10  2.37149649E-07  1.78884475E-05  6.75482792E-04  1.20016970E-02  0.10021434      0.39327076      0.72532123      0.62870347     -3.66846169E-03 -1.47438084E-04 -2.70464352E-06  7.29698035E-09  5.66770382E-08  9.12314917E-08  4.66328665E-08 -5.64849112E-10  2.37149649E-07  1.78884475E-05  6.75482792E-04  1.20016970E-02  0.10021434      0.39327076      0.72532123      0.62870347     -3.66846169E-03 -1.47438084E-04 -2.70464352E-06  7.29698035E-09  5.66770382E-08  9.12314917E-08  4.66328665E-08 -5.64849112E-10  2.37149649E-07  1.78884475E-05  6.75482792E-04  1.20016970E-02  0.10021434      0.39327076      0.72532123      0.62870347     -3.66846169E-03 -1.47438084E-04 -2.70464352E-06  7.29698035E-09  5.66770382E-08  9.12314917E-08  4.66328665E-08 -5.64849112E-10  2.37149649E-07  1.78884475E-05  6.75482792E-04  1.20016970E-02  0.10021434      0.39327076      0.72532123      0.62870347     -3.66846169E-03 -1.47438084E-04 -2.70464352E-06  7.29698035E-09  5.66770382E-08  9.12314917E-08  4.66328665E-08 -5.64849112E-10  2.37149649E-07  1.78884475E-05  6.75482792E-04  1.20016970E-02  0.10021434      0.39327076      0.72532123      0.62870347     -3.66846169E-03 -1.47438084E-04 -2.70464352E-06  7.29698035E-09  5.66770382E-08  9.12314917E-08  4.66328665E-08 -5.64849112E-10  2.37149649E-07  1.78884475E-05  6.75482792E-04  1.20016970E-02  0.10021434      0.39327076      0.72532123      0.62870347     -3.66846169E-03 -1.47438084E-04 -2.70464352E-06  7.29698035E-09  5.66770382E-08  9.12314917E-08  4.66328665E-08 -5.64849112E-10  2.37149649E-07  1.78884475E-05  6.75482792E-04  1.20016970E-02  0.10021434      0.39327076      0.72532123      0.62870347     -3.66846169E-03 -1.47438084E-04 -2.70464352E-06  7.29698035E-09  5.66770382E-08  9.12314917E-08  4.66328665E-08 -5.64849112E-10  2.37149649E-07  1.78884475E-05  6.75482792E-04  1.20016970E-02  0.10021434      0.39327076      0.72532123      0.62870347    
