# vtk DataFile Version 2.0
Volume example
ASCII
DATASET STRUCTURED_POINTS
DIMENSIONS 16 8 1
ASPECT_RATIO 1 1 1
ORIGIN 0 0 0
POINT_DATA 128
SCALARS volume_scalars float 1
LOOKUP_TABLE default
 -3.60554736E-03  1.71751960E-03  2.59390175E-02  0.16957682      0.52096647      0.75219375      0.51041842      0.16277933      2.43977122E-02  1.71857374E-03  5.68559444E-05  8.45727754E-07 -4.69240480E-10 -7.56485186E-09 -4.22394493E-08 -3.09770769E-08 -3.60554736E-03  1.71751960E-03  2.59390175E-02  0.16957682      0.52096647      0.75219375      0.51041842      0.16277933      2.43977122E-02  1.71857374E-03  5.68559444E-05  8.45727754E-07 -4.69240480E-10 -7.56485186E-09 -4.22394493E-08 -3.09770769E-08 -3.60554736E-03  1.71751960E-03  2.59390175E-02  0.16957682      0.52096647      0.75219375      0.51041842      0.16277933      2.43977122E-02  1.71857374E-03  5.68559444E-05  8.45727754E-07 -4.69240480E-10 -7.56485186E-09 -4.22394493E-08 -3.09770769E-08 -3.60554736E-03  1.71751960E-03  2.59390175E-02  0.16957682      0.52096647      0.75219375      0.51041842      0.16277933      2.43977122E-02  1.71857374E-03  5.68559444E-05  8.45727754E-07 -4.69240480E-10 -7.56485186E-09 -4.22394493E-08 -3.09770769E-08 -3.60554736E-03  1.71751960E-03  2.59390175E-02  0.16957682      0.52096647      0.75219375      0.51041842      0.16277933      2.43977122E-02  1.71857374E-03  5.68559444E-05  8.45727754E-07 -4.69240480E-10 -7.56485186E-09 -4.22394493E-08 -3.09770769E-08 -3.60554736E-03  1.71751960E-03  2.59390175E-02  0.16957682      0.52096647      0.75219375      0.51041842      0.16277933      2.43977122E-02  1.71857374E-03  5.68559444E-05  8.45727754E-07 -4.69240480E-10 -7.56485186E-09 -4.22394493E-08 -3.09770769E-08 -3.60554736E-03  1.71751960E-03  2.59390175E-02  0.16957682      0.52096647      0.75219375      0.51041842      0.16277933      2.43977122E-02  1.71857374E-03  5.68559444E-05  8.45727754E-07 -4.69240480E-10 -7.56485186E-09 -4.22394493E-08 -3.09770769E-08 -3.60554736E-03  1.71751960E-03  2.59390175E-02  0.16957682      0.52096647      0.75219375      0.51041842      0.16277933      2.43977122E-02  1.71857374E-03  5.68559444E-05  8.45727754E-07 -4.69240480E-10 -7.56485186E-09 -4.22394493E-08 -3.09770769E-08
