# vtk DataFile Version 2.0
Volume example
ASCII
DATASET STRUCTURED_POINTS
DIMENSIONS 16 8 1
ASPECT_RATIO 1 1 1
ORIGIN 0 0 0
POINT_DATA 128
SCALARS volume_scalars float 1
LOOKUP_TABLE default
 -3.66857182E-03 -1.47607105E-04 -2.64100186E-06  8.86439102E-06  3.81188438E-04  7.71353347E-03  7.33596608E-02  0.32789993      0.68881381      0.68004739      0.31553924      6.88087344E-02  7.05194147E-03  3.39622580E-04  7.66117591E-06  1.08155717E-07 -3.66857182E-03 -1.47607105E-04 -2.64100186E-06  8.86439102E-06  3.81188438E-04  7.71353347E-03  7.33596608E-02  0.32789993      0.68881381      0.68004739      0.31553924      6.88087344E-02  7.05194147E-03  3.39622580E-04  7.66117591E-06  1.08155717E-07 -3.66857182E-03 -1.47607105E-04 -2.64100186E-06  8.86439102E-06  3.81188438E-04  7.71353347E-03  7.33596608E-02  0.32789993      0.68881381      0.68004739      0.31553924      6.88087344E-02  7.05194147E-03  3.39622580E-04  7.66117591E-06  1.08155717E-07 -3.66857182E-03 -1.47607105E-04 -2.64100186E-06  8.86439102E-06  3.81188438E-04  7.71353347E-03  7.33596608E-02  0.32789993      0.68881381      0.68004739      0.31553924      6.88087344E-02  7.05194147E-03  3.39622580E-04  7.66117591E-06  1.08155717E-07 -3.66857182E-03 -1.47607105E-04 -2.64100186E-06  8.86439102E-06  3.81188438E-04  7.71353347E-03  7.33596608E-02  0.32789993      0.68881381      0.68004739      0.31553924      6.88087344E-02  7.05194147E-03  3.39622580E-04  7.66117591E-06  1.08155717E-07 -3.66857182E-03 -1.47607105E-04 -2.64100186E-06  8.86439102E-06  3.81188438E-04  7.71353347E-03  7.33596608E-02  0.32789993      0.68881381      0.68004739      0.31553924      6.88087344E-02  7.05194147E-03  3.39622580E-04  7.66117591E-06  1.08155717E-07 -3.66857182E-03 -1.47607105E-04 -2.64100186E-06  8.86439102E-06  3.81188438E-04  7.71353347E-03  7.33596608E-02  0.32789993      0.68881381      0.68004739      0.31553924      6.88087344E-02  7.05194147E-03  3.39622580E-04  7.66117591E-06  1.08155717E-07 -3.66857182E-03 -1.47607105E-04 -2.64100186E-06  8.86439102E-06  3.81188438E-04  7.71353347E-03  7.33596608E-02  0.32789993      0.68881381      0.68004739      0.31553924      6.88087344E-02  7.05194147E-03  3.39622580E-04  7.66117591E-06  1.08155717E-07
