# vtk DataFile Version 2.0
Volume example
ASCII
DATASET STRUCTURED_POINTS
DIMENSIONS 16 8 1
ASPECT_RATIO 1 1 1
ORIGIN 0 0 0
POINT_DATA 128
SCALARS volume_scalars float 1
LOOKUP_TABLE default
 -3.66854831E-03 -1.47547587E-04 -2.73317073E-06 -4.04094038E-08 -3.42217490E-08  1.45674591E-07  1.26622999E-05  5.08869009E-04  9.64860711E-03  8.59827548E-02  0.36010915      0.70881689      0.65570772      0.28507778      5.82496747E-02  5.59372874E-03 -3.66854831E-03 -1.47547587E-04 -2.73317073E-06 -4.04094038E-08 -3.42217490E-08  1.45674591E-07  1.26622999E-05  5.08869009E-04  9.64860711E-03  8.59827548E-02  0.36010915      0.70881689      0.65570772      0.28507778      5.82496747E-02  5.59372874E-03 -3.66854831E-03 -1.47547587E-04 -2.73317073E-06 -4.04094038E-08 -3.42217490E-08  1.45674591E-07  1.26622999E-05  5.08869009E-04  9.64860711E-03  8.59827548E-02  0.36010915      0.70881689      0.65570772      0.28507778      5.82496747E-02  5.59372874E-03 -3.66854831E-03 -1.47547587E-04 -2.73317073E-06 -4.04094038E-08 -3.42217490E-08  1.45674591E-07  1.26622999E-05  5.08869009E-04  9.64860711E-03  8.59827548E-02  0.36010915      0.70881689      0.65570772      0.28507778      5.82496747E-02  5.59372874E-03 -3.66854831E-03 -1.47547587E-04 -2.73317073E-06 -4.04094038E-08 -3.42217490E-08  1.45674591E-07  1.26622999E-05  5.08869009E-04  9.64860711E-03  8.59827548E-02  0.36010915      0.70881689      0.65570772      0.28507778      5.82496747E-02  5.59372874E-03 -3.66854831E-03 -1.47547587E-04 -2.73317073E-06 -4.04094038E-08 -3.42217490E-08  1.45674591E-07  1.26622999E-05  5.08869009E-04  9.64860711E-03  8.59827548E-02  0.36010915      0.70881689      0.65570772      0.28507778      5.82496747E-02  5.59372874E-03 -3.66854831E-03 -1.47547587E-04 -2.73317073E-06 -4.04094038E-08 -3.42217490E-08  1.45674591E-07  1.26622999E-05  5.08869009E-04  9.64860711E-03  8.59827548E-02  0.36010915      0.70881689      0.65570772      0.28507778      5.82496747E-02  5.59372874E-03 -3.66854831E-03 -1.47547587E-04 -2.73317073E-06 -4.04094038E-08 -3.42217490E-08  1.45674591E-07  1.26622999E-05  5.08869009E-04  9.64860711E-03  8.59827548E-02  0.36010915      0.70881689      0.65570772      0.28507778      5.82496747E-02  5.59372874E-03
