# vtk DataFile Version 2.0
Volume example
ASCII
DATASET STRUCTURED_POINTS
DIMENSIONS 16 8 1
ASPECT_RATIO 1 1 1
ORIGIN 0 0 0
POINT_DATA 128
SCALARS volume_scalars float 1
LOOKUP_TABLE default
 -3.66838579E-03 -1.47521860E-04 -2.76198716E-06 -9.26121544E-08 -4.03480804E-08  3.19398623E-08  5.42831344E-08  9.83238166E-08  9.15037432E-08  3.31294920E-08  9.76991643E-08  8.21182056E-08 -3.13602158E-08 -8.89280471E-08  4.91580181E-07  3.53325158E-05 -3.66838579E-03 -1.47521860E-04 -2.76198716E-06 -9.26121544E-08 -4.03480804E-08  3.19398623E-08  5.42831344E-08  9.83238166E-08  9.15037432E-08  3.31294920E-08  9.76991643E-08  8.21182056E-08 -3.13602158E-08 -8.89280471E-08  4.91580181E-07  3.53325158E-05 -3.66838579E-03 -1.47521860E-04 -2.76198716E-06 -9.26121544E-08 -4.03480804E-08  3.19398623E-08  5.42831344E-08  9.83238166E-08  9.15037432E-08  3.31294920E-08  9.76991643E-08  8.21182056E-08 -3.13602158E-08 -8.89280471E-08  4.91580181E-07  3.53325158E-05 -3.66838579E-03 -1.47521860E-04 -2.76198716E-06 -9.26121544E-08 -4.03480804E-08  3.19398623E-08  5.42831344E-08  9.83238166E-08  9.15037432E-08  3.31294920E-08  9.76991643E-08  8.21182056E-08 -3.13602158E-08 -8.89280471E-08  4.91580181E-07  3.53325158E-05 -3.66838579E-03 -1.47521860E-04 -2.76198716E-06 -9.26121544E-08 -4.03480804E-08  3.19398623E-08  5.42831344E-08  9.83238166E-08  9.15037432E-08  3.31294920E-08  9.76991643E-08  8.21182056E-08 -3.13602158E-08 -8.89280471E-08  4.91580181E-07  3.53325158E-05 -3.66838579E-03 -1.47521860E-04 -2.76198716E-06 -9.26121544E-08 -4.03480804E-08  3.19398623E-08  5.42831344E-08  9.83238166E-08  9.15037432E-08  3.31294920E-08  9.76991643E-08  8.21182056E-08 -3.13602158E-08 -8.89280471E-08  4.91580181E-07  3.53325158E-05 -3.66838579E-03 -1.47521860E-04 -2.76198716E-06 -9.26121544E-08 -4.03480804E-08  3.19398623E-08  5.42831344E-08  9.83238166E-08  9.15037432E-08  3.31294920E-08  9.76991643E-08  8.21182056E-08 -3.13602158E-08 -8.89280471E-08  4.91580181E-07  3.53325158E-05 -3.66838579E-03 -1.47521860E-04 -2.76198716E-06 -9.26121544E-08 -4.03480804E-08  3.19398623E-08  5.42831344E-08  9.83238166E-08  9.15037432E-08  3.31294920E-08  9.76991643E-08  8.21182056E-08 -3.13602158E-08 -8.89280471E-08  4.91580181E-07  3.53325158E-05
