# vtk DataFile Version 2.0
Volume example
ASCII
DATASET STRUCTURED_POINTS
DIMENSIONS 16 8 1
ASPECT_RATIO 1 1 1
ORIGIN 0 0 0
POINT_DATA 128
SCALARS volume_scalars float 1
LOOKUP_TABLE default
 -3.66851827E-03 -1.47544095E-04 -2.76885271E-06  8.46573123E-09  7.96440887E-08  4.44234338E-08  2.91297564E-08  5.94863252E-08  3.16997830E-06  1.62670971E-04  3.96028673E-03  4.53144051E-02  0.24368034      0.61585784      0.73150527      0.40834853     -3.66851827E-03 -1.47544095E-04 -2.76885271E-06  8.46573123E-09  7.96440887E-08  4.44234338E-08  2.91297564E-08  5.94863252E-08  3.16997830E-06  1.62670971E-04  3.96028673E-03  4.53144051E-02  0.24368034      0.61585784      0.73150527      0.40834853     -3.66851827E-03 -1.47544095E-04 -2.76885271E-06  8.46573123E-09  7.96440887E-08  4.44234338E-08  2.91297564E-08  5.94863252E-08  3.16997830E-06  1.62670971E-04  3.96028673E-03  4.53144051E-02  0.24368034      0.61585784      0.73150527      0.40834853     -3.66851827E-03 -1.47544095E-04 -2.76885271E-06  8.46573123E-09  7.96440887E-08  4.44234338E-08  2.91297564E-08  5.94863252E-08  3.16997830E-06  1.62670971E-04  3.96028673E-03  4.53144051E-02  0.24368034      0.61585784      0.73150527      0.40834853     -3.66851827E-03 -1.47544095E-04 -2.76885271E-06  8.46573123E-09  7.96440887E-08  4.44234338E-08  2.91297564E-08  5.94863252E-08  3.16997830E-06  1.62670971E-04  3.96028673E-03  4.53144051E-02  0.24368034      0.61585784      0.73150527      0.40834853     -3.66851827E-03 -1.47544095E-04 -2.76885271E-06  8.46573123E-09  7.96440887E-08  4.44234338E-08  2.91297564E-08  5.94863252E-08  3.16997830E-06  1.62670971E-04  3.96028673E-03  4.53144051E-02  0.24368034      0.61585784      0.73150527      0.40834853     -3.66851827E-03 -1.47544095E-04 -2.76885271E-06  8.46573123E-09  7.96440887E-08  4.44234338E-08  2.91297564E-08  5.94863252E-08  3.16997830E-06  1.62670971E-04  3.96028673E-03  4.53144051E-02  0.24368034      0.61585784      0.73150527      0.40834853     -3.66851827E-03 -1.47544095E-04 -2.76885271E-06  8.46573123E-09  7.96440887E-08  4.44234338E-08  2.91297564E-08  5.94863252E-08  3.16997830E-06  1.62670971E-04  3.96028673E-03  4.53144051E-02  0.24368034      0.61585784      0.73150527      0.40834853    
