# vtk DataFile Version 2.0
Volume example
ASCII
DATASET STRUCTURED_POINTS
DIMENSIONS 16 8 1
ASPECT_RATIO 1 1 1
ORIGIN 0 0 0
POINT_DATA 128
SCALARS volume_scalars float 1
LOOKUP_TABLE default
  0.57222921      0.20904216      3.57090458E-02  2.86520715E-03  1.08006898E-04  1.92467724E-06  5.39001164E-08  2.98365848E-08 -2.23578009E-08 -5.17664596E-08 -3.80262435E-08 -2.12157847E-08 -2.05198614E-08 -2.53645882E-09  2.24095338E-08  4.78241517E-08  0.57222921      0.20904216      3.57090458E-02  2.86520715E-03  1.08006898E-04  1.92467724E-06  5.39001164E-08  2.98365848E-08 -2.23578009E-08 -5.17664596E-08 -3.80262435E-08 -2.12157847E-08 -2.05198614E-08 -2.53645882E-09  2.24095338E-08  4.78241517E-08  0.57222921      0.20904216      3.57090458E-02  2.86520715E-03  1.08006898E-04  1.92467724E-06  5.39001164E-08  2.98365848E-08 -2.23578009E-08 -5.17664596E-08 -3.80262435E-08 -2.12157847E-08 -2.05198614E-08 -2.53645882E-09  2.24095338E-08  4.78241517E-08  0.57222921      0.20904216      3.57090458E-02  2.86520715E-03  1.08006898E-04  1.92467724E-06  5.39001164E-08  2.98365848E-08 -2.23578009E-08 -5.17664596E-08 -3.80262435E-08 -2.12157847E-08 -2.05198614E-08 -2.53645882E-09  2.24095338E-08  4.78241517E-08  0.57222921      0.20904216      3.57090458E-02  2.86520715E-03  1.08006898E-04  1.92467724E-06  5.39001164E-08  2.98365848E-08 -2.23578009E-08 -5.17664596E-08 -3.80262435E-08 -2.12157847E-08 -2.05198614E-08 -2.53645882E-09  2.24095338E-08  4.78241517E-08  0.57222921      0.20904216      3.57090458E-02  2.86520715E-03  1.08006898E-04  1.92467724E-06  5.39001164E-08  2.98365848E-08 -2.23578009E-08 -5.17664596E-08 -3.80262435E-08 -2.12157847E-08 -2.05198614E-08 -2.53645882E-09  2.24095338E-08  4.78241517E-08  0.57222921      0.20904216      3.57090458E-02  2.86520715E-03  1.08006898E-04  1.92467724E-06  5.39001164E-08  2.98365848E-08 -2.23578009E-08 -5.17664596E-08 -3.80262435E-08 -2.12157847E-08 -2.05198614E-08 -2.53645882E-09  2.24095338E-08  4.78241517E-08  0.57222921      0.20904216      3.57090458E-02  2.86520715E-03  1.08006898E-04  1.92467724E-06  5.39001164E-08  2.98365848E-08 -2.23578009E-08 -5.17664596E-08 -3.80262435E-08 -2.12157847E-08 -2.05198614E-08 -2.53645882E-09  2.24095338E-08  4.78241517E-08
