# vtk DataFile Version 2.0
Volume example
ASCII
DATASET STRUCTURED_POINTS
DIMENSIONS 16 8 1
ASPECT_RATIO 1 1 1
ORIGIN 0 0 0
POINT_DATA 128
SCALARS volume_scalars float 1
LOOKUP_TABLE default
  0.32172734      0.68694401      0.68185490      0.31801635      6.97078407E-02  7.18109496E-03  3.47689580E-04  7.90704780E-06  8.09138001E-08  2.84828094E-09 -3.80927574E-08 -8.03135620E-08 -5.20721315E-08 -3.57930574E-08 -1.03864526E-08  2.95571549E-08  0.32172734      0.68694401      0.68185490      0.31801635      6.97078407E-02  7.18109496E-03  3.47689580E-04  7.90704780E-06  8.09138001E-08  2.84828094E-09 -3.80927574E-08 -8.03135620E-08 -5.20721315E-08 -3.57930574E-08 -1.03864526E-08  2.95571549E-08  0.32172734      0.68694401      0.68185490      0.31801635      6.97078407E-02  7.18109496E-03  3.47689580E-04  7.90704780E-06  8.09138001E-08  2.84828094E-09 -3.80927574E-08 -8.03135620E-08 -5.20721315E-08 -3.57930574E-08 -1.03864526E-08  2.95571549E-08  0.32172734      0.68694401      0.68185490      0.31801635      6.97078407E-02  7.18109496E-03  3.47689580E-04  7.90704780E-06  8.09138001E-08  2.84828094E-09 -3.80927574E-08 -8.03135620E-08 -5.20721315E-08 -3.57930574E-08 -1.03864526E-08  2.95571549E-08  0.32172734      0.68694401      0.68185490      0.31801635      6.97078407E-02  7.18109496E-03  3.47689580E-04  7.90704780E-06  8.09138001E-08  2.84828094E-09 -3.80927574E-08 -8.03135620E-08 -5.20721315E-08 -3.57930574E-08 -1.03864526E-08  2.95571549E-08  0.32172734      0.68694401      0.68185490      0.31801635      6.97078407E-02  7.18109496E-03  3.47689580E-04  7.90704780E-06  8.09138001E-08  2.84828094E-09 -3.80927574E-08 -8.03135620E-08 -5.20721315E-08 -3.57930574E-08 -1.03864526E-08  2.95571549E-08  0.32172734      0.68694401      0.68185490      0.31801635      6.97078407E-02  7.18109496E-03  3.47689580E-04  7.90704780E-06  8.09138001E-08  2.84828094E-09 -3.80927574E-08 -8.03135620E-08 -5.20721315E-08 -3.57930574E-08 -1.03864526E-08  2.95571549E-08  0.32172734      0.68694401      0.68185490      0.31801635      6.97078407E-02  7.18109496E-03  3.47689580E-04  7.90704780E-06  8.09138001E-08  2.84828094E-09 -3.80927574E-08 -8.03135620E-08 -5.20721315E-08 -3.57930574E-08 -1.03864526E-08  2.95571549E-08
