# vtk DataFile Version 2.0
Volume example
ASCII
DATASET STRUCTURED_POINTS
DIMENSIONS 16 8 1
ASPECT_RATIO 1 1 1
ORIGIN 0 0 0
POINT_DATA 128
SCALARS volume_scalars float 1
LOOKUP_TABLE default
  0.71928966      0.63301027      0.26060507      5.04126437E-02  4.58317855E-03  1.95831541E-04  3.95712323E-06  4.76906870E-08  1.66910983E-08 -2.81276371E-08 -7.04859602E-08 -4.55668463E-08 -2.25238370E-08 -3.46327980E-08  1.81791453E-08  4.84881859E-08  0.71928966      0.63301027      0.26060507      5.04126437E-02  4.58317855E-03  1.95831541E-04  3.95712323E-06  4.76906870E-08  1.66910983E-08 -2.81276371E-08 -7.04859602E-08 -4.55668463E-08 -2.25238370E-08 -3.46327980E-08  1.81791453E-08  4.84881859E-08  0.71928966      0.63301027      0.26060507      5.04126437E-02  4.58317855E-03  1.95831541E-04  3.95712323E-06  4.76906870E-08  1.66910983E-08 -2.81276371E-08 -7.04859602E-08 -4.55668463E-08 -2.25238370E-08 -3.46327980E-08  1.81791453E-08  4.84881859E-08  0.71928966      0.63301027      0.26060507      5.04126437E-02  4.58317855E-03  1.95831541E-04  3.95712323E-06  4.76906870E-08  1.66910983E-08 -2.81276371E-08 -7.04859602E-08 -4.55668463E-08 -2.25238370E-08 -3.46327980E-08  1.81791453E-08  4.84881859E-08  0.71928966      0.63301027      0.26060507      5.04126437E-02  4.58317855E-03  1.95831541E-04  3.95712323E-06  4.76906870E-08  1.66910983E-08 -2.81276371E-08 -7.04859602E-08 -4.55668463E-08 -2.25238370E-08 -3.46327980E-08  1.81791453E-08  4.84881859E-08  0.71928966      0.63301027      0.26060507      5.04126437E-02  4.58317855E-03  1.95831541E-04  3.95712323E-06  4.76906870E-08  1.66910983E-08 -2.81276371E-08 -7.04859602E-08 -4.55668463E-08 -2.25238370E-08 -3.46327980E-08  1.81791453E-08  4.84881859E-08  0.71928966      0.63301027      0.26060507      5.04126437E-02  4.58317855E-03  1.95831541E-04  3.95712323E-06  4.76906870E-08  1.66910983E-08 -2.81276371E-08 -7.04859602E-08 -4.55668463E-08 -2.25238370E-08 -3.46327980E-08  1.81791453E-08  4.84881859E-08  0.71928966      0.63301027      0.26060507      5.04126437E-02  4.58317855E-03  1.95831541E-04  3.95712323E-06  4.76906870E-08  1.66910983E-08 -2.81276371E-08 -7.04859602E-08 -4.55668463E-08 -2.25238370E-08 -3.46327980E-08  1.81791453E-08  4.84881859E-08
