# vtk DataFile Version 2.0
Volume example
ASCII
DATASET STRUCTURED_POINTS
DIMENSIONS 16 8 1
ASPECT_RATIO 1 1 1
ORIGIN 0 0 0
POINT_DATA 128
SCALARS volume_scalars float 1
LOOKUP_TABLE default
 -3.66858346E-03 -1.47666884E-04 -2.82434394E-06  1.67174328E-08  7.50053104E-08  1.86715212E-07  1.36267317E-07  7.40418074E-08  1.01544572E-07  1.05957227E-07 -8.02962763E-09 -9.15495875E-08  9.87716362E-08  1.29908385E-05  5.20551577E-04  9.81906895E-03 -3.66858346E-03 -1.47666884E-04 -2.82434394E-06  1.67174328E-08  7.50053104E-08  1.86715212E-07  1.36267317E-07  7.40418074E-08  1.01544572E-07  1.05957227E-07 -8.02962763E-09 -9.15495875E-08  9.87716362E-08  1.29908385E-05  5.20551577E-04  9.81906895E-03 -3.66858346E-03 -1.47666884E-04 -2.82434394E-06  1.67174328E-08  7.50053104E-08  1.86715212E-07  1.36267317E-07  7.40418074E-08  1.01544572E-07  1.05957227E-07 -8.02962763E-09 -9.15495875E-08  9.87716362E-08  1.29908385E-05  5.20551577E-04  9.81906895E-03 -3.66858346E-03 -1.47666884E-04 -2.82434394E-06  1.67174328E-08  7.50053104E-08  1.86715212E-07  1.36267317E-07  7.40418074E-08  1.01544572E-07  1.05957227E-07 -8.02962763E-09 -9.15495875E-08  9.87716362E-08  1.29908385E-05  5.20551577E-04  9.81906895E-03 -3.66858346E-03 -1.47666884E-04 -2.82434394E-06  1.67174328E-08  7.50053104E-08  1.86715212E-07  1.36267317E-07  7.40418074E-08  1.01544572E-07  1.05957227E-07 -8.02962763E-09 -9.15495875E-08  9.87716362E-08  1.29908385E-05  5.20551577E-04  9.81906895E-03 -3.66858346E-03 -1.47666884E-04 -2.82434394E-06  1.67174328E-08  7.50053104E-08  1.86715212E-07  1.36267317E-07  7.40418074E-08  1.01544572E-07  1.05957227E-07 -8.02962763E-09 -9.15495875E-08  9.87716362E-08  1.29908385E-05  5.20551577E-04  9.81906895E-03 -3.66858346E-03 -1.47666884E-04 -2.82434394E-06  1.67174328E-08  7.50053104E-08  1.86715212E-07  1.36267317E-07  7.40418074E-08  1.01544572E-07  1.05957227E-07 -8.02962763E-09 -9.15495875E-08  9.87716362E-08  1.29908385E-05  5.20551577E-04  9.81906895E-03 -3.66858346E-03 -1.47666884E-04 -2.82434394E-06  1.67174328E-08  7.50053104E-08  1.86715212E-07  1.36267317E-07  7.40418074E-08  1.01544572E-07  1.05957227E-07 -8.02962763E-09 -9.15495875E-08  9.87716362E-08  1.29908385E-05  5.20551577E-04  9.81906895E-03
