# vtk DataFile Version 2.0
Volume example
ASCII
DATASET STRUCTURED_POINTS
DIMENSIONS 16 8 1
ASPECT_RATIO 1 1 1
ORIGIN 0 0 0
POINT_DATA 128
SCALARS volume_scalars float 1
LOOKUP_TABLE default
 -3.66852060E-03 -1.47642917E-04 -2.83552095E-06 -3.54322154E-08 -2.46143497E-08  1.08690344E-07  1.17050831E-07  5.85594613E-08  5.06776132E-08  9.59545758E-08  4.14654089E-08 -6.33331965E-08 -7.31702841E-08  1.05345339E-06  6.63614046E-05  1.94335997E-03 -3.66852060E-03 -1.47642917E-04 -2.83552095E-06 -3.54322154E-08 -2.46143497E-08  1.08690344E-07  1.17050831E-07  5.85594613E-08  5.06776132E-08  9.59545758E-08  4.14654089E-08 -6.33331965E-08 -7.31702841E-08  1.05345339E-06  6.63614046E-05  1.94335997E-03 -3.66852060E-03 -1.47642917E-04 -2.83552095E-06 -3.54322154E-08 -2.46143497E-08  1.08690344E-07  1.17050831E-07  5.85594613E-08  5.06776132E-08  9.59545758E-08  4.14654089E-08 -6.33331965E-08 -7.31702841E-08  1.05345339E-06  6.63614046E-05  1.94335997E-03 -3.66852060E-03 -1.47642917E-04 -2.83552095E-06 -3.54322154E-08 -2.46143497E-08  1.08690344E-07  1.17050831E-07  5.85594613E-08  5.06776132E-08  9.59545758E-08  4.14654089E-08 -6.33331965E-08 -7.31702841E-08  1.05345339E-06  6.63614046E-05  1.94335997E-03 -3.66852060E-03 -1.47642917E-04 -2.83552095E-06 -3.54322154E-08 -2.46143497E-08  1.08690344E-07  1.17050831E-07  5.85594613E-08  5.06776132E-08  9.59545758E-08  4.14654089E-08 -6.33331965E-08 -7.31702841E-08  1.05345339E-06  6.63614046E-05  1.94335997E-03 -3.66852060E-03 -1.47642917E-04 -2.83552095E-06 -3.54322154E-08 -2.46143497E-08  1.08690344E-07  1.17050831E-07  5.85594613E-08  5.06776132E-08  9.59545758E-08  4.14654089E-08 -6.33331965E-08 -7.31702841E-08  1.05345339E-06  6.63614046E-05  1.94335997E-03 -3.66852060E-03 -1.47642917E-04 -2.83552095E-06 -3.54322154E-08 -2.46143497E-08  1.08690344E-07  1.17050831E-07  5.85594613E-08  5.06776132E-08  9.59545758E-08  4.14654089E-08 -6.33331965E-08 -7.31702841E-08  1.05345339E-06  6.63614046E-05  1.94335997E-03 -3.66852060E-03 -1.47642917E-04 -2.83552095E-06 -3.54322154E-08 -2.46143497E-08  1.08690344E-07  1.17050831E-07  5.85594613E-08  5.06776132E-08  9.59545758E-08  4.14654089E-08 -6.33331965E-08 -7.31702841E-08  1.05345339E-06  6.63614046E-05  1.94335997E-03
