# vtk DataFile Version 2.0
Volume example
ASCII
DATASET STRUCTURED_POINTS
DIMENSIONS 16 8 1
ASPECT_RATIO 1 1 1
ORIGIN 0 0 0
POINT_DATA 128
SCALARS volume_scalars float 1
LOOKUP_TABLE default
  0.14492868      0.48706120      0.75074846      0.54369277      0.18504941      2.96004470E-02  2.22529634E-03  7.86116871E-05  1.28450256E-06 -2.95448888E-09 -1.89798595E-08 -5.17048342E-08 -6.54296670E-08 -4.19847979E-08 -1.38447627E-08  1.74984542E-08  0.14492868      0.48706120      0.75074846      0.54369277      0.18504941      2.96004470E-02  2.22529634E-03  7.86116871E-05  1.28450256E-06 -2.95448888E-09 -1.89798595E-08 -5.17048342E-08 -6.54296670E-08 -4.19847979E-08 -1.38447627E-08  1.74984542E-08  0.14492868      0.48706120      0.75074846      0.54369277      0.18504941      2.96004470E-02  2.22529634E-03  7.86116871E-05  1.28450256E-06 -2.95448888E-09 -1.89798595E-08 -5.17048342E-08 -6.54296670E-08 -4.19847979E-08 -1.38447627E-08  1.74984542E-08  0.14492868      0.48706120      0.75074846      0.54369277      0.18504941      2.96004470E-02  2.22529634E-03  7.86116871E-05  1.28450256E-06 -2.95448888E-09 -1.89798595E-08 -5.17048342E-08 -6.54296670E-08 -4.19847979E-08 -1.38447627E-08  1.74984542E-08  0.14492868      0.48706120      0.75074846      0.54369277      0.18504941      2.96004470E-02  2.22529634E-03  7.86116871E-05  1.28450256E-06 -2.95448888E-09 -1.89798595E-08 -5.17048342E-08 -6.54296670E-08 -4.19847979E-08 -1.38447627E-08  1.74984542E-08  0.14492868      0.48706120      0.75074846      0.54369277      0.18504941      2.96004470E-02  2.22529634E-03  7.86116871E-05  1.28450256E-06 -2.95448888E-09 -1.89798595E-08 -5.17048342E-08 -6.54296670E-08 -4.19847979E-08 -1.38447627E-08  1.74984542E-08  0.14492868      0.48706120      0.75074846      0.54369277      0.18504941      2.96004470E-02  2.22529634E-03  7.86116871E-05  1.28450256E-06 -2.95448888E-09 -1.89798595E-08 -5.17048342E-08 -6.54296670E-08 -4.19847979E-08 -1.38447627E-08  1.74984542E-08  0.14492868      0.48706120      0.75074846      0.54369277      0.18504941      2.96004470E-02  2.22529634E-03  7.86116871E-05  1.28450256E-06 -2.95448888E-09 -1.89798595E-08 -5.17048342E-08 -6.54296670E-08 -4.19847979E-08 -1.38447627E-08  1.74984542E-08
