# vtk DataFile Version 2.0
Volume example
ASCII
DATASET STRUCTURED_POINTS
DIMENSIONS 16 8 1
ASPECT_RATIO 1 1 1
ORIGIN 0 0 0
POINT_DATA 128
SCALARS volume_scalars float 1
LOOKUP_TABLE default
  0.34620470      8.16995874E-02  8.99577979E-03  4.64928977E-04  1.12664056E-05  1.40276242E-07  4.22859507E-08  7.19958804E-09 -3.46822553E-08 -3.72996602E-08 -3.08129131E-08 -1.86147258E-08  1.12705001E-08  1.64868279E-08  2.25435492E-08  5.16961123E-08  0.34620470      8.16995874E-02  8.99577979E-03  4.64928977E-04  1.12664056E-05  1.40276242E-07  4.22859507E-08  7.19958804E-09 -3.46822553E-08 -3.72996602E-08 -3.08129131E-08 -1.86147258E-08  1.12705001E-08  1.64868279E-08  2.25435492E-08  5.16961123E-08  0.34620470      8.16995874E-02  8.99577979E-03  4.64928977E-04  1.12664056E-05  1.40276242E-07  4.22859507E-08  7.19958804E-09 -3.46822553E-08 -3.72996602E-08 -3.08129131E-08 -1.86147258E-08  1.12705001E-08  1.64868279E-08  2.25435492E-08  5.16961123E-08  0.34620470      8.16995874E-02  8.99577979E-03  4.64928977E-04  1.12664056E-05  1.40276242E-07  4.22859507E-08  7.19958804E-09 -3.46822553E-08 -3.72996602E-08 -3.08129131E-08 -1.86147258E-08  1.12705001E-08  1.64868279E-08  2.25435492E-08  5.16961123E-08  0.34620470      8.16995874E-02  8.99577979E-03  4.64928977E-04  1.12664056E-05  1.40276242E-07  4.22859507E-08  7.19958804E-09 -3.46822553E-08 -3.72996602E-08 -3.08129131E-08 -1.86147258E-08  1.12705001E-08  1.64868279E-08  2.25435492E-08  5.16961123E-08  0.34620470      8.16995874E-02  8.99577979E-03  4.64928977E-04  1.12664056E-05  1.40276242E-07  4.22859507E-08  7.19958804E-09 -3.46822553E-08 -3.72996602E-08 -3.08129131E-08 -1.86147258E-08  1.12705001E-08  1.64868279E-08  2.25435492E-08  5.16961123E-08  0.34620470      8.16995874E-02  8.99577979E-03  4.64928977E-04  1.12664056E-05  1.40276242E-07  4.22859507E-08  7.19958804E-09 -3.46822553E-08 -3.72996602E-08 -3.08129131E-08 -1.86147258E-08  1.12705001E-08  1.64868279E-08  2.25435492E-08  5.16961123E-08  0.34620470      8.16995874E-02  8.99577979E-03  4.64928977E-04  1.12664056E-05  1.40276242E-07  4.22859507E-08  7.19958804E-09 -3.46822553E-08 -3.72996602E-08 -3.08129131E-08 -1.86147258E-08  1.12705001E-08  1.64868279E-08  2.25435492E-08  5.16961123E-08
