# vtk DataFile Version 2.0
Volume example
ASCII
DATASET STRUCTURED_POINTS
DIMENSIONS 16 8 1
ASPECT_RATIO 1 1 1
ORIGIN 0 0 0
POINT_DATA 128
SCALARS volume_scalars float 1
LOOKUP_TABLE default
 -3.66861513E-03 -1.47655388E-04 -2.75861453E-06  4.39239365E-08  1.52280137E-07  1.92072363E-07  1.04753269E-07  9.28917387E-08  1.29448964E-07  3.52217135E-08 -6.50596093E-08 -1.97067305E-08  2.19781577E-06  1.22241559E-04  3.16007040E-03  3.83905396E-02 -3.66861513E-03 -1.47655388E-04 -2.75861453E-06  4.39239365E-08  1.52280137E-07  1.92072363E-07  1.04753269E-07  9.28917387E-08  1.29448964E-07  3.52217135E-08 -6.50596093E-08 -1.97067305E-08  2.19781577E-06  1.22241559E-04  3.16007040E-03  3.83905396E-02 -3.66861513E-03 -1.47655388E-04 -2.75861453E-06  4.39239365E-08  1.52280137E-07  1.92072363E-07  1.04753269E-07  9.28917387E-08  1.29448964E-07  3.52217135E-08 -6.50596093E-08 -1.97067305E-08  2.19781577E-06  1.22241559E-04  3.16007040E-03  3.83905396E-02 -3.66861513E-03 -1.47655388E-04 -2.75861453E-06  4.39239365E-08  1.52280137E-07  1.92072363E-07  1.04753269E-07  9.28917387E-08  1.29448964E-07  3.52217135E-08 -6.50596093E-08 -1.97067305E-08  2.19781577E-06  1.22241559E-04  3.16007040E-03  3.83905396E-02 -3.66861513E-03 -1.47655388E-04 -2.75861453E-06  4.39239365E-08  1.52280137E-07  1.92072363E-07  1.04753269E-07  9.28917387E-08  1.29448964E-07  3.52217135E-08 -6.50596093E-08 -1.97067305E-08  2.19781577E-06  1.22241559E-04  3.16007040E-03  3.83905396E-02 -3.66861513E-03 -1.47655388E-04 -2.75861453E-06  4.39239365E-08  1.52280137E-07  1.92072363E-07  1.04753269E-07  9.28917387E-08  1.29448964E-07  3.52217135E-08 -6.50596093E-08 -1.97067305E-08  2.19781577E-06  1.22241559E-04  3.16007040E-03  3.83905396E-02 -3.66861513E-03 -1.47655388E-04 -2.75861453E-06  4.39239365E-08  1.52280137E-07  1.92072363E-07  1.04753269E-07  9.28917387E-08  1.29448964E-07  3.52217135E-08 -6.50596093E-08 -1.97067305E-08  2.19781577E-06  1.22241559E-04  3.16007040E-03  3.83905396E-02 -3.66861513E-03 -1.47655388E-04 -2.75861453E-06  4.39239365E-08  1.52280137E-07  1.92072363E-07  1.04753269E-07  9.28917387E-08  1.29448964E-07  3.52217135E-08 -6.50596093E-08 -1.97067305E-08  2.19781577E-06  1.22241559E-04  3.16007040E-03  3.83905396E-02
