# vtk DataFile Version 2.0
Volume example
ASCII
DATASET STRUCTURED_POINTS
DIMENSIONS 16 8 1
ASPECT_RATIO 1 1 1
ORIGIN 0 0 0
POINT_DATA 128
SCALARS volume_scalars float 1
LOOKUP_TABLE default
 -3.66854784E-03 -1.47604078E-04 -2.72124703E-06  7.42905740E-07  4.66650308E-05  1.46543339E-03  2.16401946E-02  0.15019190      0.48990145      0.75101393      0.54108304      0.18321294      2.91557722E-02  2.18054582E-03  7.66194571E-05  1.28078773E-06 -3.66854784E-03 -1.47604078E-04 -2.72124703E-06  7.42905740E-07  4.66650308E-05  1.46543339E-03  2.16401946E-02  0.15019190      0.48990145      0.75101393      0.54108304      0.18321294      2.91557722E-02  2.18054582E-03  7.66194571E-05  1.28078773E-06 -3.66854784E-03 -1.47604078E-04 -2.72124703E-06  7.42905740E-07  4.66650308E-05  1.46543339E-03  2.16401946E-02  0.15019190      0.48990145      0.75101393      0.54108304      0.18321294      2.91557722E-02  2.18054582E-03  7.66194571E-05  1.28078773E-06 -3.66854784E-03 -1.47604078E-04 -2.72124703E-06  7.42905740E-07  4.66650308E-05  1.46543339E-03  2.16401946E-02  0.15019190      0.48990145      0.75101393      0.54108304      0.18321294      2.91557722E-02  2.18054582E-03  7.66194571E-05  1.28078773E-06 -3.66854784E-03 -1.47604078E-04 -2.72124703E-06  7.42905740E-07  4.66650308E-05  1.46543339E-03  2.16401946E-02  0.15019190      0.48990145      0.75101393      0.54108304      0.18321294      2.91557722E-02  2.18054582E-03  7.66194571E-05  1.28078773E-06 -3.66854784E-03 -1.47604078E-04 -2.72124703E-06  7.42905740E-07  4.66650308E-05  1.46543339E-03  2.16401946E-02  0.15019190      0.48990145      0.75101393      0.54108304      0.18321294      2.91557722E-02  2.18054582E-03  7.66194571E-05  1.28078773E-06 -3.66854784E-03 -1.47604078E-04 -2.72124703E-06  7.42905740E-07  4.66650308E-05  1.46543339E-03  2.16401946E-02  0.15019190      0.48990145      0.75101393      0.54108304      0.18321294      2.91557722E-02  2.18054582E-03  7.66194571E-05  1.28078773E-06 -3.66854784E-03 -1.47604078E-04 -2.72124703E-06  7.42905740E-07  4.66650308E-05  1.46543339E-03  2.16401946E-02  0.15019190      0.48990145      0.75101393      0.54108304      0.18321294      2.91557722E-02  2.18054582E-03  7.66194571E-05  1.28078773E-06
