# vtk DataFile Version 2.0
Volume example
ASCII
DATASET STRUCTURED_POINTS
DIMENSIONS 16 8 1
ASPECT_RATIO 1 1 1
ORIGIN 0 0 0
POINT_DATA 128
SCALARS volume_scalars float 1
LOOKUP_TABLE default
 -6.30465802E-04  3.71441990E-02  0.21512671      0.58326095      0.74319464      0.44506013      0.12525985      1.65684335E-02  1.02997990E-03  3.00701377E-05  3.97352522E-07  2.98679104E-09 -6.72587452E-09 -7.10953572E-08 -5.41392318E-08  1.50399000E-08 -6.30465802E-04  3.71441990E-02  0.21512671      0.58326095      0.74319464      0.44506013      0.12525985      1.65684335E-02  1.02997990E-03  3.00701377E-05  3.97352522E-07  2.98679104E-09 -6.72587452E-09 -7.10953572E-08 -5.41392318E-08  1.50399000E-08 -6.30465802E-04  3.71441990E-02  0.21512671      0.58326095      0.74319464      0.44506013      0.12525985      1.65684335E-02  1.02997990E-03  3.00701377E-05  3.97352522E-07  2.98679104E-09 -6.72587452E-09 -7.10953572E-08 -5.41392318E-08  1.50399000E-08 -6.30465802E-04  3.71441990E-02  0.21512671      0.58326095      0.74319464      0.44506013      0.12525985      1.65684335E-02  1.02997990E-03  3.00701377E-05  3.97352522E-07  2.98679104E-09 -6.72587452E-09 -7.10953572E-08 -5.41392318E-08  1.50399000E-08 -6.30465802E-04  3.71441990E-02  0.21512671      0.58326095      0.74319464      0.44506013      0.12525985      1.65684335E-02  1.02997990E-03  3.00701377E-05  3.97352522E-07  2.98679104E-09 -6.72587452E-09 -7.10953572E-08 -5.41392318E-08  1.50399000E-08 -6.30465802E-04  3.71441990E-02  0.21512671      0.58326095      0.74319464      0.44506013      0.12525985      1.65684335E-02  1.02997990E-03  3.00701377E-05  3.97352522E-07  2.98679104E-09 -6.72587452E-09 -7.10953572E-08 -5.41392318E-08  1.50399000E-08 -6.30465802E-04  3.71441990E-02  0.21512671      0.58326095      0.74319464      0.44506013      0.12525985      1.65684335E-02  1.02997990E-03  3.00701377E-05  3.97352522E-07  2.98679104E-09 -6.72587452E-09 -7.10953572E-08 -5.41392318E-08  1.50399000E-08 -6.30465802E-04  3.71441990E-02  0.21512671      0.58326095      0.74319464      0.44506013      0.12525985      1.65684335E-02  1.02997990E-03  3.00701377E-05  3.97352522E-07  2.98679104E-09 -6.72587452E-09 -7.10953572E-08 -5.41392318E-08  1.50399000E-08
