# vtk DataFile Version 2.0
Volume example
ASCII
DATASET STRUCTURED_POINTS
DIMENSIONS 16 8 1
ASPECT_RATIO 1 1 1
ORIGIN 0 0 0
POINT_DATA 128
SCALARS volume_scalars float 1
LOOKUP_TABLE default
 -3.66858440E-03 -1.47482075E-04 -2.62604203E-06  7.95967097E-08 -1.95765342E-08 -7.57461009E-08  2.86947199E-09  3.41477069E-08  5.12247844E-08  1.38019516E-07  5.69144483E-08  7.49480336E-08  1.35632945E-07  7.06318417E-08 -2.99262126E-08  1.73599606E-08 -3.66858440E-03 -1.47482075E-04 -2.62604203E-06  7.95967097E-08 -1.95765342E-08 -7.57461009E-08  2.86947199E-09  3.41477069E-08  5.12247844E-08  1.38019516E-07  5.69144483E-08  7.49480336E-08  1.35632945E-07  7.06318417E-08 -2.99262126E-08  1.73599606E-08 -3.66858440E-03 -1.47482075E-04 -2.62604203E-06  7.95967097E-08 -1.95765342E-08 -7.57461009E-08  2.86947199E-09  3.41477069E-08  5.12247844E-08  1.38019516E-07  5.69144483E-08  7.49480336E-08  1.35632945E-07  7.06318417E-08 -2.99262126E-08  1.73599606E-08 -3.66858440E-03 -1.47482075E-04 -2.62604203E-06  7.95967097E-08 -1.95765342E-08 -7.57461009E-08  2.86947199E-09  3.41477069E-08  5.12247844E-08  1.38019516E-07  5.69144483E-08  7.49480336E-08  1.35632945E-07  7.06318417E-08 -2.99262126E-08  1.73599606E-08 -3.66858440E-03 -1.47482075E-04 -2.62604203E-06  7.95967097E-08 -1.95765342E-08 -7.57461009E-08  2.86947199E-09  3.41477069E-08  5.12247844E-08  1.38019516E-07  5.69144483E-08  7.49480336E-08  1.35632945E-07  7.06318417E-08 -2.99262126E-08  1.73599606E-08 -3.66858440E-03 -1.47482075E-04 -2.62604203E-06  7.95967097E-08 -1.95765342E-08 -7.57461009E-08  2.86947199E-09  3.41477069E-08  5.12247844E-08  1.38019516E-07  5.69144483E-08  7.49480336E-08  1.35632945E-07  7.06318417E-08 -2.99262126E-08  1.73599606E-08 -3.66858440E-03 -1.47482075E-04 -2.62604203E-06  7.95967097E-08 -1.95765342E-08 -7.57461009E-08  2.86947199E-09  3.41477069E-08  5.12247844E-08  1.38019516E-07  5.69144483E-08  7.49480336E-08  1.35632945E-07  7.06318417E-08 -2.99262126E-08  1.73599606E-08 -3.66858440E-03 -1.47482075E-04 -2.62604203E-06  7.95967097E-08 -1.95765342E-08 -7.57461009E-08  2.86947199E-09  3.41477069E-08  5.12247844E-08  1.38019516E-07  5.69144483E-08  7.49480336E-08  1.35632945E-07  7.06318417E-08 -2.99262126E-08  1.73599606E-08
