# vtk DataFile Version 2.0
Volume example
ASCII
DATASET STRUCTURED_POINTS
DIMENSIONS 16 8 1
ASPECT_RATIO 1 1 1
ORIGIN 0 0 0
POINT_DATA 128
SCALARS volume_scalars float 1
LOOKUP_TABLE default
  0.54770535      0.74965501      0.47920546      0.14393891      2.03193035E-02  1.34810898E-03  4.20663418E-05  6.25407267E-07  3.06421519E-08 -2.36666464E-09 -5.87454672E-08 -6.53102745E-08 -2.31326780E-08 -2.96302645E-08  6.35256647E-09  5.74942440E-08  0.54770535      0.74965501      0.47920546      0.14393891      2.03193035E-02  1.34810898E-03  4.20663418E-05  6.25407267E-07  3.06421519E-08 -2.36666464E-09 -5.87454672E-08 -6.53102745E-08 -2.31326780E-08 -2.96302645E-08  6.35256647E-09  5.74942440E-08  0.54770535      0.74965501      0.47920546      0.14393891      2.03193035E-02  1.34810898E-03  4.20663418E-05  6.25407267E-07  3.06421519E-08 -2.36666464E-09 -5.87454672E-08 -6.53102745E-08 -2.31326780E-08 -2.96302645E-08  6.35256647E-09  5.74942440E-08  0.54770535      0.74965501      0.47920546      0.14393891      2.03193035E-02  1.34810898E-03  4.20663418E-05  6.25407267E-07  3.06421519E-08 -2.36666464E-09 -5.87454672E-08 -6.53102745E-08 -2.31326780E-08 -2.96302645E-08  6.35256647E-09  5.74942440E-08  0.54770535      0.74965501      0.47920546      0.14393891      2.03193035E-02  1.34810898E-03  4.20663418E-05  6.25407267E-07  3.06421519E-08 -2.36666464E-09 -5.87454672E-08 -6.53102745E-08 -2.31326780E-08 -2.96302645E-08  6.35256647E-09  5.74942440E-08  0.54770535      0.74965501      0.47920546      0.14393891      2.03193035E-02  1.34810898E-03  4.20663418E-05  6.25407267E-07  3.06421519E-08 -2.36666464E-09 -5.87454672E-08 -6.53102745E-08 -2.31326780E-08 -2.96302645E-08  6.35256647E-09  5.74942440E-08  0.54770535      0.74965501      0.47920546      0.14393891      2.03193035E-02  1.34810898E-03  4.20663418E-05  6.25407267E-07  3.06421519E-08 -2.36666464E-09 -5.87454672E-08 -6.53102745E-08 -2.31326780E-08 -2.96302645E-08  6.35256647E-09  5.74942440E-08  0.54770535      0.74965501      0.47920546      0.14393891      2.03193035E-02  1.34810898E-03  4.20663418E-05  6.25407267E-07  3.06421519E-08 -2.36666464E-09 -5.87454672E-08 -6.53102745E-08 -2.31326780E-08 -2.96302645E-08  6.35256647E-09  5.74942440E-08
