# vtk DataFile Version 2.0
Volume example
ASCII
DATASET STRUCTURED_POINTS
DIMENSIONS 16 8 1
ASPECT_RATIO 1 1 1
ORIGIN 0 0 0
POINT_DATA 128
SCALARS volume_scalars float 1
LOOKUP_TABLE default
 -3.66858765E-03 -1.47385028E-04  1.46139164E-05  6.60608057E-04  1.17982142E-02  9.90251228E-02  0.39061496      0.72415149      0.63093787      0.25835693      4.97199744E-02  4.49694088E-03  1.91126310E-04  3.78746745E-06  4.49437891E-08  5.27933821E-08 -3.66858765E-03 -1.47385028E-04  1.46139164E-05  6.60608057E-04  1.17982142E-02  9.90251228E-02  0.39061496      0.72415149      0.63093787      0.25835693      4.97199744E-02  4.49694088E-03  1.91126310E-04  3.78746745E-06  4.49437891E-08  5.27933821E-08 -3.66858765E-03 -1.47385028E-04  1.46139164E-05  6.60608057E-04  1.17982142E-02  9.90251228E-02  0.39061496      0.72415149      0.63093787      0.25835693      4.97199744E-02  4.49694088E-03  1.91126310E-04  3.78746745E-06  4.49437891E-08  5.27933821E-08 -3.66858765E-03 -1.47385028E-04  1.46139164E-05  6.60608057E-04  1.17982142E-02  9.90251228E-02  0.39061496      0.72415149      0.63093787      0.25835693      4.97199744E-02  4.49694088E-03  1.91126310E-04  3.78746745E-06  4.49437891E-08  5.27933821E-08 -3.66858765E-03 -1.47385028E-04  1.46139164E-05  6.60608057E-04  1.17982142E-02  9.90251228E-02  0.39061496      0.72415149      0.63093787      0.25835693      4.97199744E-02  4.49694088E-03  1.91126310E-04  3.78746745E-06  4.49437891E-08  5.27933821E-08 -3.66858765E-03 -1.47385028E-04  1.46139164E-05  6.60608057E-04  1.17982142E-02  9.90251228E-02  0.39061496      0.72415149      0.63093787      0.25835693      4.97199744E-02  4.49694088E-03  1.91126310E-04  3.78746745E-06  4.49437891E-08  5.27933821E-08 -3.66858765E-03 -1.47385028E-04  1.46139164E-05  6.60608057E-04  1.17982142E-02  9.90251228E-02  0.39061496      0.72415149      0.63093787      0.25835693      4.97199744E-02  4.49694088E-03  1.91126310E-04  3.78746745E-06  4.49437891E-08  5.27933821E-08 -3.66858765E-03 -1.47385028E-04  1.46139164E-05  6.60608057E-04  1.17982142E-02  9.90251228E-02  0.39061496      0.72415149      0.63093787      0.25835693      4.97199744E-02  4.49694088E-03  1.91126310E-04  3.78746745E-06  4.49437891E-08  5.27933821E-08
