# vtk DataFile Version 2.0
Volume example
ASCII
DATASET STRUCTURED_POINTS
DIMENSIONS 16 8 1
ASPECT_RATIO 1 1 1
ORIGIN 0 0 0
POINT_DATA 128
SCALARS volume_scalars float 1
LOOKUP_TABLE default
 -3.66854202E-03 -1.47603772E-04 -2.80775294E-06 -5.29740447E-08  3.06044058E-07  2.45313677E-05  8.72513338E-04  1.46000683E-02  0.11482090      0.42438897      0.73719686      0.60183793      0.23091494      4.16391380E-02  3.52881826E-03  1.40575750E-04 -3.66854202E-03 -1.47603772E-04 -2.80775294E-06 -5.29740447E-08  3.06044058E-07  2.45313677E-05  8.72513338E-04  1.46000683E-02  0.11482090      0.42438897      0.73719686      0.60183793      0.23091494      4.16391380E-02  3.52881826E-03  1.40575750E-04 -3.66854202E-03 -1.47603772E-04 -2.80775294E-06 -5.29740447E-08  3.06044058E-07  2.45313677E-05  8.72513338E-04  1.46000683E-02  0.11482090      0.42438897      0.73719686      0.60183793      0.23091494      4.16391380E-02  3.52881826E-03  1.40575750E-04 -3.66854202E-03 -1.47603772E-04 -2.80775294E-06 -5.29740447E-08  3.06044058E-07  2.45313677E-05  8.72513338E-04  1.46000683E-02  0.11482090      0.42438897      0.73719686      0.60183793      0.23091494      4.16391380E-02  3.52881826E-03  1.40575750E-04 -3.66854202E-03 -1.47603772E-04 -2.80775294E-06 -5.29740447E-08  3.06044058E-07  2.45313677E-05  8.72513338E-04  1.46000683E-02  0.11482090      0.42438897      0.73719686      0.60183793      0.23091494      4.16391380E-02  3.52881826E-03  1.40575750E-04 -3.66854202E-03 -1.47603772E-04 -2.80775294E-06 -5.29740447E-08  3.06044058E-07  2.45313677E-05  8.72513338E-04  1.46000683E-02  0.11482090      0.42438897      0.73719686      0.60183793      0.23091494      4.16391380E-02  3.52881826E-03  1.40575750E-04 -3.66854202E-03 -1.47603772E-04 -2.80775294E-06 -5.29740447E-08  3.06044058E-07  2.45313677E-05  8.72513338E-04  1.46000683E-02  0.11482090      0.42438897      0.73719686      0.60183793      0.23091494      4.16391380E-02  3.52881826E-03  1.40575750E-04 -3.66854202E-03 -1.47603772E-04 -2.80775294E-06 -5.29740447E-08  3.06044058E-07  2.45313677E-05  8.72513338E-04  1.46000683E-02  0.11482090      0.42438897      0.73719686      0.60183793      0.23091494      4.16391380E-02  3.52881826E-03  1.40575750E-04
