# vtk DataFile Version 2.0
Volume example
ASCII
DATASET STRUCTURED_POINTS
DIMENSIONS 16 8 1
ASPECT_RATIO 1 1 1
ORIGIN 0 0 0
POINT_DATA 128
SCALARS volume_scalars float 1
LOOKUP_TABLE default
  0.72985297      0.41357556      0.10966611      1.36625767E-02  7.99919071E-04  2.20144630E-05  3.12452215E-07  2.64566857E-08  3.58007179E-09 -4.81214570E-08 -5.37631699E-08 -3.30385284E-08 -3.04152721E-08 -3.09464276E-08  1.56464797E-08  5.05732700E-08  0.72985297      0.41357556      0.10966611      1.36625767E-02  7.99919071E-04  2.20144630E-05  3.12452215E-07  2.64566857E-08  3.58007179E-09 -4.81214570E-08 -5.37631699E-08 -3.30385284E-08 -3.04152721E-08 -3.09464276E-08  1.56464797E-08  5.05732700E-08  0.72985297      0.41357556      0.10966611      1.36625767E-02  7.99919071E-04  2.20144630E-05  3.12452215E-07  2.64566857E-08  3.58007179E-09 -4.81214570E-08 -5.37631699E-08 -3.30385284E-08 -3.04152721E-08 -3.09464276E-08  1.56464797E-08  5.05732700E-08  0.72985297      0.41357556      0.10966611      1.36625767E-02  7.99919071E-04  2.20144630E-05  3.12452215E-07  2.64566857E-08  3.58007179E-09 -4.81214570E-08 -5.37631699E-08 -3.30385284E-08 -3.04152721E-08 -3.09464276E-08  1.56464797E-08  5.05732700E-08  0.72985297      0.41357556      0.10966611      1.36625767E-02  7.99919071E-04  2.20144630E-05  3.12452215E-07  2.64566857E-08  3.58007179E-09 -4.81214570E-08 -5.37631699E-08 -3.30385284E-08 -3.04152721E-08 -3.09464276E-08  1.56464797E-08  5.05732700E-08  0.72985297      0.41357556      0.10966611      1.36625767E-02  7.99919071E-04  2.20144630E-05  3.12452215E-07  2.64566857E-08  3.58007179E-09 -4.81214570E-08 -5.37631699E-08 -3.30385284E-08 -3.04152721E-08 -3.09464276E-08  1.56464797E-08  5.05732700E-08  0.72985297      0.41357556      0.10966611      1.36625767E-02  7.99919071E-04  2.20144630E-05  3.12452215E-07  2.64566857E-08  3.58007179E-09 -4.81214570E-08 -5.37631699E-08 -3.30385284E-08 -3.04152721E-08 -3.09464276E-08  1.56464797E-08  5.05732700E-08  0.72985297      0.41357556      0.10966611      1.36625767E-02  7.99919071E-04  2.20144630E-05  3.12452215E-07  2.64566857E-08  3.58007179E-09 -4.81214570E-08 -5.37631699E-08 -3.30385284E-08 -3.04152721E-08 -3.09464276E-08  1.56464797E-08  5.05732700E-08
