# vtk DataFile Version 2.0
Volume example
ASCII
DATASET STRUCTURED_POINTS
DIMENSIONS 16 8 1
ASPECT_RATIO 1 1 1
ORIGIN 0 0 0
POINT_DATA 128
SCALARS volume_scalars float 1
LOOKUP_TABLE default
 -3.66855040E-03 -1.47504237E-04 -2.66031520E-06  3.06830934E-08  1.95558609E-08  1.07049026E-07  7.70395090E-08 -6.39963371E-09 -1.20153398E-08  1.53506073E-06  8.91516829E-05  2.45969510E-03  3.18912901E-02  0.19432814      0.55651414      0.74902028     -3.66855040E-03 -1.47504237E-04 -2.66031520E-06  3.06830934E-08  1.95558609E-08  1.07049026E-07  7.70395090E-08 -6.39963371E-09 -1.20153398E-08  1.53506073E-06  8.91516829E-05  2.45969510E-03  3.18912901E-02  0.19432814      0.55651414      0.74902028     -3.66855040E-03 -1.47504237E-04 -2.66031520E-06  3.06830934E-08  1.95558609E-08  1.07049026E-07  7.70395090E-08 -6.39963371E-09 -1.20153398E-08  1.53506073E-06  8.91516829E-05  2.45969510E-03  3.18912901E-02  0.19432814      0.55651414      0.74902028     -3.66855040E-03 -1.47504237E-04 -2.66031520E-06  3.06830934E-08  1.95558609E-08  1.07049026E-07  7.70395090E-08 -6.39963371E-09 -1.20153398E-08  1.53506073E-06  8.91516829E-05  2.45969510E-03  3.18912901E-02  0.19432814      0.55651414      0.74902028     -3.66855040E-03 -1.47504237E-04 -2.66031520E-06  3.06830934E-08  1.95558609E-08  1.07049026E-07  7.70395090E-08 -6.39963371E-09 -1.20153398E-08  1.53506073E-06  8.91516829E-05  2.45969510E-03  3.18912901E-02  0.19432814      0.55651414      0.74902028     -3.66855040E-03 -1.47504237E-04 -2.66031520E-06  3.06830934E-08  1.95558609E-08  1.07049026E-07  7.70395090E-08 -6.39963371E-09 -1.20153398E-08  1.53506073E-06  8.91516829E-05  2.45969510E-03  3.18912901E-02  0.19432814      0.55651414      0.74902028     -3.66855040E-03 -1.47504237E-04 -2.66031520E-06  3.06830934E-08  1.95558609E-08  1.07049026E-07  7.70395090E-08 -6.39963371E-09 -1.20153398E-08  1.53506073E-06  8.91516829E-05  2.45969510E-03  3.18912901E-02  0.19432814      0.55651414      0.74902028     -3.66855040E-03 -1.47504237E-04 -2.66031520E-06  3.06830934E-08  1.95558609E-08  1.07049026E-07  7.70395090E-08 -6.39963371E-09 -1.20153398E-08  1.53506073E-06  8.91516829E-05  2.45969510E-03  3.18912901E-02  0.19432814      0.55651414      0.74902028    
