# vtk DataFile Version 2.0
Volume example
ASCII
DATASET STRUCTURED_POINTS
DIMENSIONS 16 8 1
ASPECT_RATIO 1 1 1
ORIGIN 0 0 0
POINT_DATA 128
SCALARS volume_scalars float 1
LOOKUP_TABLE default
  4.31716582E-03  3.28707416E-03  4.25667549E-03 -6.74779818E-04 -4.52039158E-03 -9.68356431E-03 -1.28797106E-02 -1.49413599E-02 -1.23890378E-02 -9.40103270E-03 -4.13578190E-03 -6.79253880E-03 -2.84161400E-02 -9.46551338E-02 -0.20185296      2.36434815E-03 -3.90057074E-04  2.95306114E-03  1.79520994E-03 -6.00234955E-04 -2.45172391E-03 -4.88599436E-03 -9.26029403E-03 -1.31739443E-02 -9.95437801E-03 -3.33156902E-03  2.69938190E-03  1.33518744E-02  3.24019114E-03 -7.07916766E-02 -0.17375150      4.82271425E-03 -1.55598484E-03  1.16922567E-03  3.98638099E-03  3.90099152E-03  2.59164465E-03 -5.04695578E-03 -7.24524073E-03 -1.15137342E-02 -7.85124209E-03 -4.33749240E-03  6.45864988E-03  2.59462502E-02  3.66481021E-02 -1.33435512E-02 -9.53382477E-02  8.62035085E-05 -2.57891580E-03  2.55813869E-03  8.07750784E-03  8.15004762E-03  4.46747430E-03 -1.12591952E-03 -2.48212530E-03 -9.91541054E-03 -8.23786296E-03 -5.02413139E-03  9.81279090E-03  4.22700271E-02  7.15520382E-02  5.76263517E-02  5.20524685E-04 -2.81838002E-03 -1.09874865E-03  8.13344959E-03  1.20570920E-02  1.30322101E-02  8.60417448E-03  3.38423811E-03  9.23210580E-04 -2.35962518E-03 -5.45471162E-03 -4.76398319E-03  1.01350583E-02  5.13791293E-02  0.10802141      0.12410744      9.27386880E-02 -7.60418316E-03  2.44636176E-04  1.51587892E-02  2.30151117E-02  2.27330141E-02  1.88810304E-02  1.25349769E-02  1.08196558E-02  6.09352719E-03 -1.25419942E-03  4.32954374E-04  1.50008369E-02  6.43784404E-02  0.13897035      0.18036748      0.16458946     -6.51802495E-03  4.70367027E-04  1.43313054E-02  2.91887987E-02  3.10963020E-02  3.08446288E-02  2.58208364E-02  2.38769893E-02  1.52399717E-02  8.20567459E-03  9.02297348E-03  3.03280205E-02  2.31835973E-02  0.14052936      0.20956796      0.22779489     -8.92113149E-03  2.10710242E-03  2.74225436E-02  1.08633572E-02  3.95168476E-02  4.89692874E-02  4.06729802E-02  2.34875344E-02  2.45566368E-02  2.52576433E-02  3.16015370E-02  7.13641718E-02  0.10371652     -1.81966834E-03  0.21980236      0.27476498     -1.24751963E-02
