# vtk DataFile Version 2.0
Volume example
ASCII
DATASET STRUCTURED_POINTS
DIMENSIONS 16 8 1
ASPECT_RATIO 1 1 1
ORIGIN 0 0 0
POINT_DATA 128
SCALARS volume_scalars float 1
LOOKUP_TABLE default
  1.31268268E-02  1.21209286E-02  9.00989119E-03  2.38676555E-03 -4.97644767E-03 -7.22985063E-03 -6.14733063E-03  7.73085456E-04  1.24630434E-02  1.22855287E-02 -3.18255764E-03 -2.58692931E-02 -4.02198844E-02 -4.87070903E-02 -5.84566779E-02 -1.36258558E-03  1.39499595E-02  1.23758651E-02  9.60828830E-03  3.96291120E-03 -3.15801776E-03 -5.58636850E-03 -4.67897672E-03  4.23908001E-03  1.45043526E-02  1.71187408E-02  3.69310775E-03 -2.54245773E-02 -5.05197719E-02 -5.98777235E-02 -7.59834200E-02  9.39164218E-03  1.62588637E-02  1.37132807E-02  1.19022513E-02  3.72935878E-03 -3.26322764E-03 -4.98926267E-03 -3.39606008E-03  6.11964520E-03  1.75339002E-02  3.01913284E-02  1.73322335E-02 -1.72489211E-02 -5.09036854E-02 -7.68613517E-02 -9.65372622E-02  7.90173560E-03  1.42862387E-02  1.59049407E-02  1.20503297E-02  4.42974176E-03  1.01228725E-04 -5.72168315E-03 -3.88019276E-03  8.80217925E-03  2.76333448E-02  4.12947126E-02  3.38005647E-02 -2.65700486E-03 -4.37207669E-02 -8.09197724E-02 -0.11187197      7.01932516E-03  1.20383622E-02  1.30839339E-02  1.44242449E-02  3.19813821E-03  1.67086476E-03 -3.00802710E-03 -2.74724490E-03  6.55660126E-03  2.43406892E-02  4.79911380E-02  4.88759503E-02  1.48786819E-02 -2.58263946E-02 -6.69367164E-02 -0.10788520      6.50054263E-03  8.68664030E-03  1.30358338E-02  1.06211342E-02  8.50740355E-03  3.13456310E-03 -1.28010113E-03 -7.26517709E-03  2.93685100E-03  2.38994621E-02  4.73966226E-02  5.77526987E-02  3.78537178E-02  2.53760663E-04 -3.69316302E-02 -7.51298890E-02  4.55675321E-03  8.13942461E-04  8.44768621E-03  1.17809568E-02  1.47680752E-02  8.47083051E-03  4.45304671E-04 -1.48905301E-02 -4.15538950E-03  1.27407489E-02  3.52093093E-02  5.34685664E-02  6.85909614E-02  3.96515168E-02  8.34482443E-03 -2.73637921E-02 -8.08315934E-04  6.97973976E-03  1.12771103E-02  1.18022123E-02  9.16541927E-03  2.63750600E-03  3.62560991E-03  1.55723495E-02 -3.39899622E-02 -3.16981855E-03  2.66226977E-02  4.49902751E-02  3.38957645E-02  8.68088156E-02  4.76803482E-02  1.41567793E-02 -8.22595553E-04
