# vtk DataFile Version 2.0
Volume example
ASCII
DATASET STRUCTURED_POINTS
DIMENSIONS 16 8 1
ASPECT_RATIO 1 1 1
ORIGIN 0 0 0
POINT_DATA 128
SCALARS volume_scalars float 1
LOOKUP_TABLE default
 -9.58067086E-03 -6.95391186E-03 -6.36558980E-03 -3.87034519E-03 -1.14901899E-03 -2.18875217E-03 -4.11317730E-03 -1.25303445E-02 -2.36400981E-02 -2.62581706E-02 -1.51750278E-02  5.53455064E-03  5.29739819E-02  0.17305084      0.36513361      3.62434052E-03 -1.02272611E-02 -7.01771397E-03 -1.88166474E-03 -1.44665129E-03  2.33522244E-03  4.69339400E-04 -6.10626442E-03 -1.87815987E-02 -2.35765129E-02 -2.52446532E-02 -1.13134244E-02  2.07361765E-02  9.43684801E-02  0.27369434      0.53158313     -7.96417333E-03 -4.04599588E-03 -4.33403719E-03 -4.66639316E-03 -2.68615363E-03 -2.38077343E-03 -4.08476684E-03 -9.48815886E-03 -1.66765712E-02 -2.12861896E-02 -1.85065717E-02 -1.61224848E-03  4.01362814E-02  0.11651500      0.35634181      0.65899229     -7.48547073E-03 -2.87869922E-03 -2.01608287E-03 -4.89328615E-03 -5.89886867E-03 -6.34571118E-03 -7.61822565E-03 -9.00894683E-03 -1.56070208E-02 -2.09661629E-02 -1.09132072E-02  8.01095087E-03  5.67241497E-02  0.17516322      0.42644981      0.77097005     -5.83365373E-03 -6.56218384E-04 -2.73310440E-03 -2.15080008E-03 -5.32892393E-03 -1.46396447E-03 -3.04196053E-03 -7.51117757E-03 -1.15494607E-02 -4.37698560E-03  1.29729137E-03  2.55334713E-02  7.54507259E-02  0.19666833      0.47623208      0.85558826     -1.52212637E-03 -8.64276080E-04 -1.43628669E-04 -1.41137443E-03  4.76036454E-03  6.79953210E-03  5.48570836E-03  3.80747067E-03  6.21535629E-03  1.59915090E-02  2.39639338E-02  3.70209701E-02  8.34396631E-02  0.21800624      0.51773345      0.96067023      3.84376058E-03  4.25305264E-03  6.74822880E-03  8.70997086E-03  1.66406836E-02  2.25978550E-02  2.36728601E-02  2.50383206E-02  3.06783020E-02  4.09930572E-02  4.69448157E-02  6.29944578E-02  6.23284094E-02  0.21021552      0.49873227      0.95911413      7.44009623E-03  1.98100321E-02  3.13546062E-02  1.06995804E-02  3.52721438E-02  5.03487103E-02  5.26475385E-02  4.71573025E-02  5.42576611E-02  7.17888847E-02  7.83059448E-02  9.09470096E-02  6.51388988E-02  0.12673083      0.46256980      0.85636926      1.30344164E-02
