# vtk DataFile Version 2.0
Volume example
ASCII
DATASET STRUCTURED_POINTS
DIMENSIONS 16 8 1
ASPECT_RATIO 1 1 1
ORIGIN 0 0 0
POINT_DATA 128
SCALARS volume_scalars float 1
LOOKUP_TABLE default
  5.40502090E-03  8.32303241E-03  7.10797403E-03  1.96198071E-03 -8.78185127E-03 -1.32248523E-02 -1.44176874E-02 -1.27806021E-02 -7.47409882E-03  6.14163233E-04  5.01804193E-03 -4.42730309E-03 -4.27098498E-02 -0.10926549     -0.18558860      3.18360049E-03  6.49168994E-03  7.24878348E-03  7.37217208E-03  2.86489911E-03 -5.41746104E-03 -1.18972156E-02 -1.56843867E-02 -1.04328925E-02 -5.92865143E-03  4.32747323E-03  1.45215224E-02  1.10508138E-02 -2.13534459E-02 -0.10576672     -0.20570403      1.42629503E-03  2.95624905E-03  4.66921739E-03  6.22234866E-03  4.25112946E-03 -9.50610411E-05 -4.09526192E-03 -8.52974597E-03 -6.75538508E-03 -2.58373446E-03  3.22970026E-03  1.97405852E-02  3.13132890E-02  1.68206953E-02 -7.25433454E-02 -0.18271126      1.14526530E-03 -6.13584009E-04  4.48660459E-03  7.61798909E-03  8.82098638E-03  4.82836040E-03  8.55368038E-04 -6.04935223E-03 -4.42861347E-03 -5.62877255E-03  3.46053857E-03  2.38075983E-02  4.67809215E-02  4.46762070E-02 -1.90878510E-02 -0.13174078     -1.73876504E-03 -1.32725842E-03  7.88162928E-03  1.27214873E-02  1.58749055E-02  1.40766716E-02  6.00421894E-03  2.66173098E-04 -1.53254357E-03 -2.16528960E-03  1.43946125E-03  2.43885778E-02  6.35026470E-02  8.83371308E-02  4.25877571E-02 -5.96450269E-02 -6.22971496E-03  2.80425791E-03  1.27449557E-02  2.14924347E-02  2.42088698E-02  2.05635373E-02  1.31560955E-02  8.85955524E-03  4.71146032E-03 -1.81040610E-03 -2.30509264E-04  2.19538268E-02  7.53915235E-02  0.12913734      0.10783141      4.01820615E-03 -9.86104645E-03  4.66408674E-03  1.55765265E-02  2.83977315E-02  3.40506174E-02  3.04918513E-02  2.24135444E-02  1.42832929E-02  7.82607403E-03  3.22476728E-03  5.56552224E-03  3.34223658E-02  3.88925187E-02  0.13367230      0.14988396      8.14557672E-02 -1.20115383E-02 -5.72160445E-03  3.18749249E-02  6.60461606E-03  4.23631892E-02  4.35977727E-02  3.21747921E-02  1.46017335E-02  4.22557164E-03  1.15692923E-02  2.06744876E-02  5.67931980E-02  0.10450212     -8.55654385E-03  0.15169576      0.14883594     -8.76001175E-03
