# vtk DataFile Version 2.0
Volume example
ASCII
DATASET STRUCTURED_POINTS
DIMENSIONS 16 8 1
ASPECT_RATIO 1 1 1
ORIGIN 0 0 0
POINT_DATA 128
SCALARS volume_scalars float 1
LOOKUP_TABLE default
 -8.34564492E-03 -2.15025395E-02 -3.41409184E-02 -4.35942970E-02 -3.47129628E-02 -3.74818267E-03  6.62599131E-02  0.18708260      0.28929359      0.34410226      0.34221211      0.27642611      0.18496586      7.33991712E-02 -4.12888154E-02 -5.66873117E-04 -8.47562123E-03 -5.35227545E-03 -2.99586598E-02 -3.00704744E-02 -2.20375936E-02  2.03721169E-02  0.10575529      0.21937220      0.33200842      0.38593400      0.36859506      0.28438553      0.16740319      4.78170626E-02 -6.64456934E-02 -1.73452613E-03 -6.31316972E-04 -9.55224875E-03 -2.39291564E-02 -1.55093148E-02 -6.82187779E-03  4.38286960E-02  0.13523816      0.26132941      0.38257721      0.43627632      0.39890659      0.29246953      0.15373109      2.56860629E-02 -6.36306778E-02  4.31126170E-03  2.86878366E-03 -3.13810585E-03 -1.06728710E-02 -8.46623257E-03 -1.60194817E-03  5.76365367E-02  0.15444365      0.29877764      0.43746427      0.48875678      0.43501213      0.29789594      0.12768081     -3.62466276E-03 -6.75250143E-02  4.13152063E-03  1.34675493E-02  1.05269188E-02  7.22939614E-03  8.90368101E-05  1.84287957E-03  5.17022014E-02  0.16918813      0.33688775      0.49523658      0.54641432      0.47255626      0.30009994      0.10446050     -4.14798968E-02 -8.84368047E-02  6.46723341E-03  1.93797331E-02  1.70555990E-02  1.25120534E-02  2.28181062E-03  4.77257464E-03  4.14565243E-02  0.18365684      0.36766714      0.54519933      0.62046659      0.52435166      0.31843108      7.95779601E-02 -8.51779208E-02 -9.86313075E-02  1.39629962E-02  2.96577606E-02  2.28166319E-02  2.04964131E-02  8.01963173E-03 -1.46661303E-03  3.93794477E-02  0.16152051      0.36373985      0.55593169      0.63898981      0.55682909      0.34213015      8.41481313E-02 -9.02670100E-02 -0.12389587      2.33012158E-02  2.23967340E-02 -7.30724772E-03  2.48281453E-02  1.67262666E-02 -3.13345366E-03  1.84242688E-02  0.14103466      0.22059670      0.52179366      0.60958308      0.49574789      0.16838297      0.11498133      1.96644794E-02 -2.60721464E-02  3.09071951E-02
