# vtk DataFile Version 2.0
Volume example
ASCII
DATASET STRUCTURED_POINTS
DIMENSIONS 16 8 1
ASPECT_RATIO 1 1 1
ORIGIN 0 0 0
POINT_DATA 128
SCALARS volume_scalars float 1
LOOKUP_TABLE default
 -5.83393127E-03 -5.35906525E-03 -9.42215440E-04  1.24562867E-02  2.47379560E-02  3.07435542E-02  2.48194970E-02  1.75978187E-02  8.59793648E-03 -3.99020384E-04 -7.14500109E-03 -1.79600883E-02 -2.81682685E-02 -3.56541239E-02 -3.74201685E-02  3.88472318E-03 -2.02015135E-03 -8.36833846E-03 -4.63589933E-03  3.86083126E-03  2.12555025E-02  3.19376402E-02  2.79202443E-02  1.85156148E-02  9.89504810E-03 -8.09710764E-04 -8.70164577E-03 -1.96977314E-02 -3.11439019E-02 -3.54208499E-02 -3.88402417E-02  6.42672705E-04  2.89644091E-03 -7.46917771E-03 -6.26701489E-03 -1.33924035E-03  1.62349828E-02  2.81789321E-02  2.89650373E-02  2.09485274E-02  9.85805225E-03 -2.44147988E-04 -9.66761541E-03 -2.05556192E-02 -2.90149860E-02 -3.64607573E-02 -4.08718698E-02  8.36634450E-03  5.01407031E-03 -4.18179715E-03 -7.64763448E-03 -4.65688808E-03  8.15396849E-03  2.45959274E-02  3.25031541E-02  2.35774871E-02  1.08668525E-02  1.82807411E-03 -1.06731830E-02 -2.06771158E-02 -2.97814682E-02 -3.83778885E-02 -4.28893790E-02  1.47010498E-02  9.10752639E-03 -6.76140795E-03 -1.41205732E-02 -4.97941719E-03  2.12380476E-03  2.12304667E-02  3.36440429E-02  3.08232252E-02  1.94627028E-02  4.95298440E-03 -7.39291310E-03 -1.93476174E-02 -3.20705660E-02 -4.02768701E-02 -4.41430807E-02  1.82650425E-02  1.07976366E-02 -6.47885958E-04 -1.27995675E-02 -1.38605097E-02 -8.09316058E-03  1.10422112E-02  3.59881595E-02  3.96187045E-02  3.14445011E-02  1.60249025E-02  9.08313086E-06 -1.52161242E-02 -3.21075581E-02 -4.10650074E-02 -4.71803397E-02  2.15717088E-02  1.04664238E-02 -4.74659842E-04 -1.66988391E-02 -2.38188598E-02 -1.97060667E-02  4.17323597E-03  2.38866992E-02  4.23651822E-02  4.05548736E-02  2.55127195E-02  1.87952956E-03  1.63734872E-02 -1.64631903E-02 -2.99197994E-02 -4.81052622E-02  2.59388350E-02  1.48960936E-03 -8.85440595E-03 -1.95393320E-02 -2.15381198E-02 -1.16969589E-02  1.92896929E-03  3.12083289E-02  1.47562595E-02  3.71391326E-02  2.76899431E-02 -5.57248620E-03 -3.58140245E-02  6.41482398E-02 -1.69922989E-02 -3.68989967E-02  2.93496717E-02
