# vtk DataFile Version 2.0
Volume example
ASCII
DATASET STRUCTURED_POINTS
DIMENSIONS 16 8 1
ASPECT_RATIO 1 1 1
ORIGIN 0 0 0
POINT_DATA 128
SCALARS volume_scalars float 1
LOOKUP_TABLE default
  3.34468996E-03 -7.38539780E-03 -2.52396110E-02 -4.26601730E-02 -4.85315509E-02 -3.04494295E-02  1.80736762E-02  0.10086911      0.22395284      0.32278651      0.36430985      0.32631093      0.24384730      0.12416300     -2.29882868E-03 -4.31561191E-03  1.16328010E-03 -5.54751605E-05 -2.24704519E-02 -3.89792137E-02 -3.85986865E-02 -1.44987209E-02  4.03403975E-02  0.13753316      0.26582792      0.36683014      0.40238136      0.34719297      0.24228938      9.82192382E-02 -4.88940068E-02 -8.12378421E-04  5.90548757E-03 -2.76274025E-03 -1.79740973E-02 -2.15481091E-02 -1.88267641E-02  9.17275064E-03  6.85894042E-02  0.18251641      0.31663451      0.42561495      0.44602290      0.36904794      0.24510650      8.01450834E-02 -6.52282611E-02 -7.58097507E-04  1.21404296E-02  1.75392732E-03 -4.50613163E-03 -1.13853635E-02 -1.45206582E-02  2.19709240E-02  9.08522755E-02  0.21382610      0.36587167      0.48272648      0.48587835      0.38754070      0.22207664      5.20834103E-02 -7.35415518E-02  4.41988511E-03  1.66286342E-02  1.21200904E-02  1.38883963E-02 -5.83869265E-03 -3.66022880E-03  2.30934899E-02  9.93609205E-02  0.23449107      0.41290376      0.53556764      0.53313893      0.40822461      0.20708199      2.15483103E-02 -8.17483887E-02  6.25347532E-03  2.64878832E-02  2.11898312E-02  1.68080274E-02 -1.23145292E-04 -4.18225350E-03  2.02171318E-02  0.10262476      0.25504872      0.45019233      0.60013437      0.58387148      0.42550030      0.19209239     -1.41325183E-02 -6.87487796E-02  1.23280566E-02  3.57913449E-02  2.21580584E-02  1.56883132E-02  4.04652394E-03 -5.73015120E-03  1.44026112E-02  7.13372231E-02  0.24124706      0.46700117      0.62105471      0.63000858      0.38852257      0.16318439     -3.67383845E-02 -7.83914328E-02  1.99769717E-02  4.36753444E-02 -2.06367287E-04  3.63761969E-02 -5.37261320E-03 -3.03136148E-02 -2.29142210E-03  0.12102026      5.92110977E-02  0.42256930      0.61892503      0.62737566      0.32617563      1.10457847E-02  5.47312088E-02  4.60072756E-02  3.31553891E-02
