# vtk DataFile Version 2.0
Volume example
ASCII
DATASET STRUCTURED_POINTS
DIMENSIONS 16 8 1
ASPECT_RATIO 1 1 1
ORIGIN 0 0 0
POINT_DATA 128
SCALARS volume_scalars float 1
LOOKUP_TABLE default
  1.95429660E-02  9.37060118E-02  0.18717510      0.27555403      0.32987213      0.32887140      0.28417581      0.20780241      0.10473394      1.78207159E-02 -3.48790623E-02 -4.92660925E-02 -5.24769425E-02 -4.37930077E-02 -3.97421084E-02 -1.58048254E-02  1.09270550E-02  9.15650874E-02  0.19925410      0.30107969      0.36066091      0.36269969      0.30411574      0.20564717      9.56086069E-02  1.22291921E-02 -3.16189118E-02 -3.96823883E-02 -4.42568846E-02 -4.17532548E-02 -4.23821770E-02 -3.09399255E-02  9.63949226E-03  8.79030600E-02  0.20728526      0.33025551      0.40533495      0.40594754      0.33047622      0.21066979      9.00882185E-02  1.28907515E-02 -2.48265229E-02 -3.02876737E-02 -3.68123576E-02 -2.83084381E-02 -2.72751711E-02 -2.21286844E-02 -7.76919024E-03  8.08417499E-02  0.22218066      0.36838806      0.46641999      0.45697683      0.36489287      0.22063677      8.92400891E-02  1.12976711E-02 -2.00890396E-02 -2.07412280E-02 -1.19116437E-02 -7.16115162E-03 -3.19496263E-03 -2.15029772E-02 -3.10523584E-02  6.64521605E-02  0.24787524      0.41260374      0.52458990      0.51494753      0.39679232      0.21927552      7.47152194E-02  5.46296127E-04 -1.87664460E-02 -1.97373703E-02 -3.17350938E-03  1.03991134E-02  1.87856797E-02 -3.11002843E-02 -4.94225062E-02  6.13289475E-02  0.26780647      0.45818537      0.58755273      0.57424474      0.42067322      0.21892622      4.08521183E-02 -2.98016276E-02 -1.90339461E-02 -9.31521226E-03 -3.24175623E-03  1.60833504E-02  4.88384403E-02 -4.37977463E-02 -3.93375792E-02  7.81133473E-02  0.26444408      0.48865947      0.63129151      0.59866369      0.43704188      0.21570319      3.20399888E-02 -2.01229565E-02 -1.62308048E-02  1.27195967E-02 -1.82992232E-03  1.77253429E-02  4.80890386E-02 -5.53540811E-02  8.96635652E-03  0.21542877      7.63912797E-02  0.43280065      0.58186674      0.54160076      0.34633872      0.14736366      5.18952161E-02  3.75677533E-02  1.23704579E-02 -3.60548608E-02  2.70449575E-02  3.30918725E-03  1.85599830E-02 -6.09891154E-02
