# vtk DataFile Version 2.0
Volume example
ASCII
DATASET STRUCTURED_POINTS
DIMENSIONS 16 8 1
ASPECT_RATIO 1 1 1
ORIGIN 0 0 0
POINT_DATA 128
SCALARS volume_scalars float 1
LOOKUP_TABLE default
  1.19402921E-02  1.34451445E-02  9.75314248E-03  2.34814035E-03 -4.78225015E-03 -8.96221120E-03 -9.01607703E-03 -6.34407299E-03  4.55606962E-03  1.32336142E-02  7.23015517E-03 -1.97862238E-02 -5.14305085E-02 -7.27554187E-02 -8.47201794E-02 -9.53202252E-04  1.14322472E-02  1.57815591E-02  1.12307472E-02  2.52640946E-03 -4.91536129E-03 -7.77969509E-03 -1.14004835E-02 -5.66167850E-03  8.04590713E-03  1.77904572E-02  1.80793367E-02 -1.28518920E-02 -5.35611324E-02 -8.82785916E-02 -0.11098162      3.58464289E-03  1.43972514E-02  1.46038244E-02  1.25690214E-02  5.29831555E-03 -2.74086487E-03 -5.51017979E-03 -7.93750491E-03 -1.74115691E-03  8.95458926E-03  2.48282235E-02  2.88291741E-02  4.58974252E-03 -4.33263667E-02 -9.22542289E-02 -0.13626973      3.33296554E-03  1.05528692E-02  1.39659531E-02  1.13809798E-02  8.04153550E-03 -8.29481985E-04 -2.03199382E-03 -4.17443505E-03 -3.71901464E-04  8.95003881E-03  3.09482664E-02  4.32883538E-02  2.34595444E-02 -2.76994370E-02 -8.49607438E-02 -0.14544411      3.07883020E-03  7.43641797E-03  1.32531514E-02  1.62356384E-02  1.11546945E-02  7.72361737E-03  1.94816256E-03 -2.41069891E-03 -2.65502045E-03  6.75018877E-03  3.22335698E-02  4.99316007E-02  4.57750969E-02  2.79924972E-03 -5.35528809E-02 -0.11798090      2.15316494E-03  3.44356929E-04  6.83439756E-03  1.79488808E-02  1.71081237E-02  1.33328941E-02  6.94478443E-03 -1.38350495E-03  7.82283023E-04  3.79170896E-03  2.60089971E-02  5.28765470E-02  6.34987280E-02  4.13142927E-02 -3.54740117E-03 -6.79629743E-02 -2.36514467E-03 -2.15957314E-03  1.24797141E-02  2.20851433E-02  2.32740603E-02  1.95641108E-02  8.69065523E-03 -6.04478875E-03 -4.18140972E-03  2.76655774E-03  2.22324822E-02  4.77116443E-02  6.89342245E-02  6.85452893E-02  4.40055355E-02  1.83810026E-03 -6.95319055E-03 -1.24693569E-03  2.41666995E-02  8.80277529E-03  2.47174054E-02  2.17171405E-02  1.29995830E-02  6.39970182E-03 -2.27085948E-02 -9.94199887E-03  1.76362153E-02  4.64249924E-02  5.98645285E-02  5.05413339E-02  6.57602102E-02  4.39207330E-02 -8.62598605E-03
