# vtk DataFile Version 2.0
Volume example
ASCII
DATASET STRUCTURED_POINTS
DIMENSIONS 16 8 1
ASPECT_RATIO 1 1 1
ORIGIN 0 0 0
POINT_DATA 128
SCALARS volume_scalars float 1
LOOKUP_TABLE default
 -9.99152940E-03 -7.00863870E-03 -1.61287375E-03  2.89190933E-03  4.79537295E-03  3.58812627E-03 -3.34046641E-03 -1.00669404E-02 -1.80457905E-02 -2.17200667E-02 -9.52491071E-03  2.81352699E-02  0.11583588      0.30936119      0.58529675      5.13793726E-04 -3.44875944E-03 -3.42507847E-03 -3.31389811E-03 -4.97256930E-04 -1.78176968E-03 -2.95716780E-03 -5.92884235E-03 -1.53494915E-02 -2.00946964E-02 -1.98294800E-02 -2.19606515E-03  5.29407747E-02  0.17053920      0.41137123      0.70252001     -1.25577869E-02 -6.62946654E-03 -5.21701807E-03 -4.72860923E-03 -4.56857402E-03 -3.69931431E-03 -4.67752339E-03 -8.28715507E-03 -1.44468443E-02 -1.71483066E-02 -1.19154379E-02  1.52522475E-02  8.04912150E-02  0.20085005      0.47963917      0.77589768     -7.39168003E-03 -3.17389867E-03 -7.50235328E-03 -9.64001287E-03 -5.89470519E-03 -3.78326420E-03 -8.17261077E-03 -1.03908442E-02 -9.40884650E-03 -8.01676232E-03 -2.07158446E-05  2.92910710E-02  0.10853189      0.27415037      0.54757768      0.84676576      6.48184505E-05 -1.98597950E-03 -8.12011957E-03 -5.72604965E-03 -2.67567532E-03 -4.63013072E-03 -4.26843762E-03 -5.94529649E-03 -2.96418462E-03  6.31243270E-03  1.32235214E-02  4.59804945E-02  0.13355032      0.30993989      0.59868246      0.90494472      6.31467020E-03  7.39482557E-03 -4.53602616E-03 -1.21280854E-03 -9.89195541E-04  3.83269112E-03  1.31845451E-03  1.25473207E-02  1.04852468E-02  2.33974345E-02  3.95572744E-02  6.03319295E-02  0.14334449      0.33809572      0.64058805      0.95268703      8.43341090E-03  8.85781832E-03  6.67401310E-03  8.08205362E-03  1.30248461E-02  1.76887885E-02  2.05108132E-02  2.29411740E-02  3.72347943E-02  5.04918471E-02  6.04520328E-02  8.29034522E-02  0.12359498      0.33795848      0.63656014      0.95032603      1.43806869E-02  2.12845653E-02  2.29566190E-02  7.89428502E-03  3.12686451E-02  4.75663841E-02  4.36557792E-02  4.68919203E-02  4.42788079E-02  8.67199153E-02  0.10063133      0.11040548      8.32640529E-02  0.22565830      0.57496578      0.84202093      1.98524017E-02
