# vtk DataFile Version 2.0
Volume example
ASCII
DATASET STRUCTURED_POINTS
DIMENSIONS 16 8 1
ASPECT_RATIO 1 1 1
ORIGIN 0 0 0
POINT_DATA 128
SCALARS volume_scalars float 1
LOOKUP_TABLE default
 -4.38848101E-02 -1.08925169E-02  3.21125202E-02  0.10007732      0.19749193      0.28877583      0.33101255      0.31915548      0.26625505      0.18251418      9.14611965E-02  1.14300260E-02 -3.31929177E-02 -4.15998250E-02 -1.02311410E-02 -2.10193568E-03 -2.31832638E-02 -1.48732541E-02  4.13785651E-02  0.11663482      0.22183825      0.31069198      0.36133564      0.34625828      0.28197506      0.18408813      8.17866027E-02  4.06877953E-04 -4.23713624E-02 -4.22589071E-02 -2.21840069E-02 -4.79157865E-02 -3.19493897E-02 -6.72983890E-03  4.72042859E-02  0.11466204      0.23623413      0.33246008      0.39560032      0.38046521      0.30685747      0.18999974      8.53522718E-02 -3.09325475E-03 -4.12972122E-02 -4.89697270E-02 -4.20580953E-02 -4.79983874E-02 -2.28606965E-02  6.01521606E-05  4.16425578E-02  0.11645456      0.24371885      0.35958710      0.43801662      0.42207709      0.33920017      0.21380579      9.43686664E-02  9.87469405E-03 -3.37647200E-02 -4.80538160E-02 -5.31617589E-02 -4.33498397E-02 -1.91848334E-02 -1.26087768E-02  2.47093979E-02  0.10723782      0.25427788      0.39641431      0.47508636      0.46926978      0.38205355      0.24124856      0.11269527      3.17664631E-02 -1.64291747E-02 -3.10926232E-02 -5.75176179E-02 -4.07818966E-02 -1.69302765E-02 -1.28662763E-02  1.97477397E-02  0.10839137      0.26519009      0.41775009      0.51715076      0.52292436      0.41426221      0.26376915      0.13157636      4.91115376E-02  2.04059615E-04 -1.77203435E-02 -5.65988086E-02 -2.74500903E-02 -1.78489983E-02  2.05114507E-03  2.42547784E-02  0.11998921      0.27548802      0.43814951      0.53451526      0.54141694      0.43338981      0.27772117      0.14556779      0.14948732      3.51682901E-02 -1.32908663E-02 -6.14934340E-02 -2.25740690E-02 -7.87830167E-03  0.10093266     -2.74418909E-02  0.15005960      0.31962645      0.43356830      0.47088763      0.34374788      0.35457692      0.25753579      6.75670207E-02 -0.14446302      0.18872660     -5.53975254E-02 -0.12280941     -2.91065685E-02
