# vtk DataFile Version 2.0
Volume example
ASCII
DATASET STRUCTURED_POINTS
DIMENSIONS 16 8 1
ASPECT_RATIO 1 1 1
ORIGIN 0 0 0
POINT_DATA 128
SCALARS volume_scalars float 1
LOOKUP_TABLE default
  0.18191426      8.48929062E-02  5.53775392E-02  4.29880582E-02  3.79682519E-02  2.49862447E-02  1.15472507E-02 -3.90397874E-03 -1.49778565E-02 -1.99831221E-02 -2.58474220E-02 -3.11942454E-02 -3.15328613E-02 -2.79184952E-02 -1.56357773E-02 -2.18521338E-02  0.17981260      8.33906531E-02  4.88496982E-02  3.43320183E-02  2.15719640E-02  1.86533201E-02  1.66621879E-02  6.03587879E-03  4.71993553E-04 -3.07408255E-03 -7.58869201E-03 -1.67414285E-02 -1.93041079E-02 -2.27746218E-02 -2.18306035E-02  0.36077809      0.20023879      8.90360177E-02  3.60318534E-02  1.31463734E-02 -3.35744745E-03 -5.40776877E-03 -1.38693838E-03  2.68046162E-03  4.82420996E-03  8.18367489E-03  8.73331260E-03  1.99389629E-04 -1.05789509E-02 -1.47985807E-02 -1.45839695E-02  0.38457772      0.21463731      9.25577134E-02  1.74493250E-02 -1.44679900E-02 -3.10586151E-02 -2.59256791E-02 -1.59122404E-02 -5.73569909E-03  2.49149697E-03  6.16849773E-03  8.47766548E-03  5.35762683E-03  2.33859313E-03 -3.08526633E-03 -3.35696642E-03  0.41228992      0.23681404      8.63483548E-02  1.34788826E-02 -3.19323651E-02 -5.22471964E-02 -4.92059402E-02 -3.33161950E-02 -1.85393412E-02 -2.34507862E-03  3.20727658E-03  5.31878322E-03  2.26163748E-03  1.75531371E-03  2.91803177E-03  3.01156542E-03  0.43166211      0.25737703      0.10380689      2.12070104E-02 -2.67998409E-02 -6.11568987E-02 -6.02471456E-02 -4.42266725E-02 -2.56543048E-02 -4.23158938E-03  1.88070885E-03  3.96405626E-03  5.56676096E-05 -5.17103961E-03  2.21925904E-03  4.64846008E-03  0.46879181      0.28441492      0.11565555      4.66802195E-02 -1.17496187E-02 -3.25261094E-02 -3.66311893E-02 -2.95395944E-02 -1.05276145E-02  7.74269737E-03  1.17754852E-02  4.23918013E-03  1.39534287E-02 -3.10937990E-03 -7.03140860E-03 -7.33015547E-03  0.48666024      0.32940438      4.38875072E-02  0.12076088      4.01273072E-02 -1.34050031E-03  9.57033224E-03  3.36802341E-02  2.96053309E-02  2.47101728E-02  1.73588824E-02  7.84847536E-04 -1.43713625E-02  1.23977019E-02 -3.38563845E-02 -4.79076765E-02  0.49952805    
