# vtk DataFile Version 2.0
Volume example
ASCII
DATASET STRUCTURED_POINTS
DIMENSIONS 16 8 1
ASPECT_RATIO 1 1 1
ORIGIN 0 0 0
POINT_DATA 128
SCALARS volume_scalars float 1
LOOKUP_TABLE default
 -8.41132924E-03  5.04911467E-02  0.13146123      0.22612061      0.30087137      0.33890656      0.32170391      0.26040605      0.16158819      5.57101779E-02 -1.83191709E-02 -5.22841103E-02 -5.54795377E-02 -4.30329032E-02 -2.88871806E-02 -9.60740820E-03 -3.66393966E-03  4.90174778E-02  0.13979648      0.24680384      0.33402750      0.36880001      0.34569651      0.26593783      0.15798110      5.01375496E-02 -1.96574088E-02 -4.92188707E-02 -5.22149391E-02 -4.48044576E-02 -4.15249914E-02 -5.55776656E-02 -8.65371432E-03  4.33189981E-02  0.14167926      0.26445493      0.36886355      0.41216287      0.38320991      0.28075790      0.15924613      5.11477068E-02 -1.04554566E-02 -3.51861268E-02 -4.75990996E-02 -3.92618179E-02 -4.07309495E-02 -4.49684672E-02 -1.89175196E-02  3.08027584E-02  0.13946171      0.28051436      0.41434953      0.45804238      0.42718509      0.30451286      0.16300660      5.29569499E-02 -3.25247354E-04 -1.64358579E-02 -2.07032599E-02 -2.22470388E-02 -2.54942141E-02 -3.76392081E-02 -3.44026275E-02  1.84179991E-02  0.15044671      0.30826783      0.45402080      0.52052027      0.46321788      0.31898543      0.17074557      5.37801944E-02  8.50003585E-03 -7.23241712E-04  1.33076974E-05  1.06964122E-04 -2.23695370E-03 -3.99583355E-02 -4.90262993E-02  2.60551879E-03  0.15024640      0.32362702      0.50158083      0.56745195      0.50371116      0.33835578      0.14791805      4.17140238E-02  1.62918102E-02  9.84763633E-03  1.06436079E-02  1.21410992E-02  2.49653198E-02 -4.71081957E-02 -3.49447429E-02  2.39465646E-02  0.14560020      0.34741199      0.53553504      0.60673177      0.51632720      0.34043759      0.13773566      5.25135472E-02  2.81637218E-02  4.95526642E-02  1.29124355E-02  1.41432015E-02  2.35575587E-02 -5.07404171E-02  3.92900500E-03  0.20338255      5.80664305E-03  0.33175462      0.51410270      0.56462646      0.48638597      0.15122136      0.13413988      0.10684823      2.41093859E-02 -8.73548388E-02  6.34326860E-02 -1.77818630E-02 -1.61458943E-02 -5.63212037E-02
