# vtk DataFile Version 2.0
Volume example
ASCII
DATASET STRUCTURED_POINTS
DIMENSIONS 16 8 1
ASPECT_RATIO 1 1 1
ORIGIN 0 0 0
POINT_DATA 128
SCALARS volume_scalars float 1
LOOKUP_TABLE default
  1.11455917E-02  1.33332023E-02  1.00217490E-02  2.64803087E-03 -6.68554334E-03 -1.11931916E-02 -1.30169494E-02 -1.44683830E-02 -4.96561779E-03  6.84694201E-03  1.18343923E-02 -1.02314437E-02 -5.08408844E-02 -9.91653651E-02 -0.13133967     -4.26764280E-04  9.63965245E-03  9.92313866E-03  1.07431896E-02  4.77755023E-03 -2.15423713E-03 -8.79505742E-03 -9.57382191E-03 -6.31661993E-03  1.74452318E-03  1.18785724E-02  2.29484867E-02  4.67349915E-03 -4.37695719E-02 -0.10426771     -0.16394162      2.86923954E-04  7.28063984E-03  1.10174455E-02  9.47390031E-03  5.19804936E-03 -4.47261706E-03 -8.83601792E-03 -8.82032048E-03 -5.84518444E-03  1.71415077E-03  1.55362934E-02  2.99233533E-02  2.25227457E-02 -1.68636851E-02 -9.97793302E-02 -0.17613153      1.89915765E-03  6.50354847E-03  9.47785843E-03  1.16689652E-02  8.91836733E-03  4.17767279E-03 -1.51093211E-03 -3.15536070E-03 -7.84856919E-03  3.55529389E-03  1.60193127E-02  3.83930989E-02  4.19276394E-02  1.11461822E-02 -6.74190894E-02 -0.16364262      4.03224770E-03  3.93070863E-04  8.46248958E-03  9.46018100E-03  1.50686232E-02  1.10439397E-02  5.44355391E-03 -1.33459223E-04 -5.47524309E-04  1.13692565E-03  1.40410708E-02  4.24381979E-02  6.00895733E-02  5.15921228E-02 -1.54612772E-02 -0.11459387     -5.68690477E-04  4.04605438E-04  1.45705827E-02  2.16495637E-02  2.31065676E-02  1.76970456E-02  1.12061771E-02  7.12642539E-03  2.80914200E-03  3.60347028E-03  1.22845396E-02  4.05961573E-02  7.54625648E-02  8.90782848E-02  4.51901332E-02 -5.24840057E-02 -4.75906348E-03  1.84537505E-03  1.50430799E-02  2.40933038E-02  3.29015367E-02  2.87152901E-02  1.60869565E-02  3.82133084E-03  7.50004547E-04 -6.58875506E-04  8.96301307E-03  4.06254902E-02  5.27491234E-02  0.10761981      9.41645950E-02  2.91820522E-02 -1.19018052E-02 -4.65967506E-03  2.98820920E-02  1.23341533E-03  3.19241509E-02  3.30581740E-02  1.99999083E-02  7.66165694E-03 -9.57787223E-03  3.40211787E-04  1.29013965E-02  5.51409684E-02  9.27795321E-02  1.68242231E-02  9.64685827E-02  7.89138079E-02 -1.46360286E-02
