# vtk DataFile Version 2.0
Volume example
ASCII
DATASET STRUCTURED_POINTS
DIMENSIONS 16 8 1
ASPECT_RATIO 1 1 1
ORIGIN 0 0 0
POINT_DATA 128
SCALARS volume_scalars float 1
LOOKUP_TABLE default
 -2.91506220E-02  1.83870252E-02  7.74453506E-02  0.16626693      0.26181215      0.32455006      0.33883098      0.29721442      0.21559532      0.12247782      2.49555632E-02 -3.58899087E-02 -5.44562526E-02 -3.97295915E-02 -1.29122846E-02 -4.86320758E-04 -1.53380698E-02  1.57582592E-02  8.69645625E-02  0.18258594      0.28475618      0.35414064      0.36496919      0.31383535      0.21863453      0.10888062      1.72751453E-02 -3.80269289E-02 -5.41939251E-02 -4.61443104E-02 -3.31798270E-02 -6.12508580E-02 -2.12470144E-02  1.81028023E-02  8.76520649E-02  0.18936926      0.30747083      0.38753885      0.40201619      0.34482518      0.23499286      0.11280420      2.56772190E-02 -3.12555023E-02 -4.66455519E-02 -4.74140309E-02 -4.48193550E-02 -5.75712845E-02 -2.26254202E-02  1.06306504E-02  7.43590444E-02  0.19482644      0.33348659      0.42827216      0.45314106      0.37930447      0.24945006      0.12226941      3.37831229E-02 -1.35803465E-02 -2.61303354E-02 -3.50883529E-02 -4.06192020E-02 -4.96314168E-02 -2.79109497E-02 -6.18749252E-03  7.58013427E-02  0.19500372      0.36154556      0.47393551      0.48965994      0.40794557      0.27342331      0.13041469      4.61218432E-02  8.06246139E-03 -4.30002483E-03 -1.08764945E-02 -2.86048818E-02 -4.02767956E-02 -3.51291858E-02 -1.79976132E-02  6.42350093E-02  0.20549265      0.38543499      0.51023048      0.53510398      0.44614497      0.27582917      0.14274813      6.75456747E-02  3.04090865E-02  9.04792827E-03  3.10459197E-03 -1.18493531E-02 -4.21715677E-02 -2.45306734E-02  4.49879095E-03  6.62884712E-02  0.22357091      0.40829593      0.54081273      0.54511946      0.45877236      0.28389552      0.15976813      7.65491202E-02  9.72774997E-02  2.70032417E-02  9.42834187E-03 -1.10344160E-02 -3.81862409E-02  4.39442880E-03  0.15998447     -1.65996514E-02  0.23377489      0.41919485      0.52425838      0.53282791      0.21964478      0.24342471      0.18201844      3.14434394E-02 -0.12580833      0.12593010     -4.29054499E-02 -7.04708621E-02 -4.54472452E-02
