# vtk DataFile Version 2.0
Volume example
ASCII
DATASET STRUCTURED_POINTS
DIMENSIONS 16 8 1
ASPECT_RATIO 1 1 1
ORIGIN 0 0 0
POINT_DATA 128
SCALARS volume_scalars float 1
LOOKUP_TABLE default
 -2.89347628E-03 -3.52526200E-03 -1.96101912E-03 -2.49884033E-04 -4.56028385E-04 -3.08247027E-03 -5.13061089E-03 -3.21391737E-03 -5.81033668E-03  6.29654108E-03  4.34915759E-02  0.14591850      0.30798119      0.47403121      0.59224033      2.15650653E-03 -2.44929804E-03 -7.74449995E-03 -8.53309222E-03 -6.73001772E-03 -4.43329010E-03 -8.39074515E-03 -5.64524438E-03 -2.97747715E-03  2.64911074E-03  2.43645161E-02  7.98970535E-02  0.20243989      0.36339763      0.51288563      0.58885872      6.21110806E-03 -8.76286940E-04 -1.19701717E-02 -9.82022192E-03 -1.07326275E-02 -7.94857182E-03 -9.10096522E-03 -6.85828319E-03 -2.10747379E-03  9.11637116E-03  4.54481617E-02  0.11150160      0.25020987      0.41148409      0.54393995      0.57887810      1.24649564E-02  1.85590738E-03 -8.84270668E-03 -1.41374618E-02 -9.63185634E-03 -9.12942644E-03 -8.91582482E-03 -6.19349023E-03  6.69898838E-03  2.58872136E-02  5.93149960E-02  0.14865015      0.29967150      0.47414288      0.58910221      0.57437247      1.61341261E-02  1.99755025E-03 -5.14044240E-03 -7.66901812E-03 -5.71169844E-03 -6.10878505E-03 -1.70752325E-03  4.01417818E-03  1.85941923E-02  3.73280607E-02  8.06286633E-02  0.17643335      0.34680888      0.54420865      0.62845725      0.58116573      1.67303775E-02  1.32129975E-02 -2.16092262E-03  2.95797386E-03 -2.32208590E-03  1.92364911E-03  5.41020185E-04  2.40977183E-02  3.70395146E-02  5.36575578E-02  9.98714492E-02  0.20037334      0.38963637      0.59720224      0.67408812      0.54144454      2.34174300E-02  1.96505953E-02  1.04571227E-02  1.07995570E-02  7.77683174E-03  9.73132346E-03  1.39892604E-02  1.35419294E-02  4.29368205E-02  6.48153871E-02  0.11230386      0.22082660      0.33603796      0.59695274      0.68364727      0.55430382      3.26498449E-02  2.84565277E-02  2.22107116E-02  4.21144860E-03  2.33022682E-02  2.47044507E-02  2.15282328E-02  4.03412245E-02 -3.92448856E-03  8.61471966E-02  0.14909534      0.25623018      0.29449168      0.31501094      0.60567415      0.49120781      4.06567194E-02
