# vtk DataFile Version 2.0
Volume example
ASCII
DATASET STRUCTURED_POINTS
DIMENSIONS 16 8 1
ASPECT_RATIO 1 1 1
ORIGIN 0 0 0
POINT_DATA 128
SCALARS volume_scalars float 1
LOOKUP_TABLE default
 -1.13961671E-03 -5.19708823E-03 -2.92166043E-03  3.91156925E-03  1.92027874E-02  3.04747466E-02  3.26697193E-02  2.30374224E-02  9.79902502E-03 -1.13551825E-04 -9.26111732E-03 -2.04769950E-02 -2.93159653E-02 -3.76621298E-02 -4.12496179E-02  1.31927722E-03  3.50856665E-03 -4.70890291E-03 -5.30419825E-03  8.97873542E-04  1.28396163E-02  2.44958829E-02  3.24752815E-02  2.48730909E-02  1.00391572E-02 -1.23949314E-03 -1.27320820E-02 -1.99223738E-02 -2.84133442E-02 -3.95240933E-02 -4.39202935E-02  1.02020558E-02  4.33151051E-03 -5.59434935E-04 -3.54953064E-03 -2.06277170E-03  7.33868778E-03  2.27663573E-02  3.39264497E-02  2.90570799E-02  1.44021194E-02 -1.69586379E-03 -1.24039436E-02 -2.25569960E-02 -3.06983888E-02 -4.14844714E-02 -4.65488918E-02  1.74498186E-02  6.72644703E-03 -1.57095876E-03 -4.99051623E-03 -2.99539324E-03  3.65735264E-03  1.98420882E-02  3.27423811E-02  3.48807611E-02  2.29216646E-02  3.45023512E-03 -1.01508610E-02 -2.49343272E-02 -3.65083031E-02 -4.59910892E-02 -5.32062054E-02  2.00170279E-02  9.07175522E-03  8.96353333E-04 -1.29062915E-02 -9.99263301E-03 -4.21303511E-03  8.68353341E-03  2.84463074E-02  4.25927825E-02  3.38348895E-02  1.45983873E-02 -8.34739301E-03 -2.30566207E-02 -3.64798978E-02 -4.76749204E-02 -5.92031702E-02  2.35793255E-02  1.31119424E-02 -1.32830610E-04 -1.31928027E-02 -1.54196229E-02 -1.27288969E-02 -5.59511594E-03  2.47381385E-02  4.59849425E-02  4.30526733E-02  2.84157936E-02  2.50348402E-03 -1.79133918E-02 -3.65246199E-02 -4.71215546E-02 -6.21231794E-02  2.86238901E-02  2.01987550E-02 -3.54902376E-03 -1.67137664E-02 -2.52810847E-02 -2.73714662E-02 -1.42053403E-02  1.79344357E-03  4.42761071E-02  4.98090088E-02  3.87235731E-02  1.11977365E-02  2.29281113E-02 -1.43105499E-02 -3.22850198E-02 -5.64661883E-02  3.46338153E-02  7.04469904E-03 -1.43130999E-02 -1.25319716E-02 -2.67359447E-02 -2.85459962E-02 -4.20169160E-03  5.57909161E-02 -1.69929210E-02  3.59242968E-02  3.89914513E-02  8.05853633E-05 -3.34978141E-02  8.49882960E-02 -5.66210691E-03 -3.85367349E-02  3.10134720E-02
