# vtk DataFile Version 2.0
Volume example
ASCII
DATASET STRUCTURED_POINTS
DIMENSIONS 16 8 1
ASPECT_RATIO 1 1 1
ORIGIN 0 0 0
POINT_DATA 128
SCALARS volume_scalars float 1
LOOKUP_TABLE default
  5.08139394E-02  3.46408226E-02 -3.89275793E-03 -1.91339310E-02 -2.11597774E-02 -2.41971691E-03  2.16417331E-02  3.83442156E-02  4.76514623E-02  3.62930447E-02  2.23947652E-02  4.78613796E-03 -5.62595669E-03 -2.03170367E-02 -2.70387698E-02 -1.09920828E-02  5.58335185E-02  3.03314980E-02 -9.13659390E-03 -4.00107093E-02 -3.61559726E-02 -2.21885424E-02  3.53096565E-03  2.42729671E-02  3.15677486E-02  2.58835312E-02  1.72725134E-02  1.50955690E-03 -4.15167073E-04 -4.65104124E-03 -9.71096102E-03  4.00036462E-02  4.59163152E-02  2.76415311E-02 -4.71640239E-03 -3.66593599E-02 -5.37667125E-02 -3.39333080E-02 -1.26326811E-02  1.04010794E-02  1.29579408E-02  1.53247435E-02  6.11238694E-03  3.63721442E-03  9.36838426E-03  6.79317338E-04 -6.36323635E-03  2.27199383E-02  4.94817533E-02  4.74576168E-02  1.04570752E-02 -2.27745678E-02 -4.41336259E-02 -3.21348645E-02 -1.79102644E-02 -4.20757290E-03  6.21132180E-03  6.74260641E-03  3.18873837E-03  1.65822136E-03  1.21216406E-03 -5.33437589E-03 -1.14474799E-02  4.54356289E-03  3.67827266E-02  7.23804832E-02  4.12052423E-02 -9.61758848E-03 -1.90418791E-02 -2.34580878E-02 -1.44402031E-02 -1.12783900E-02 -1.14199789E-02 -2.46269605E-03 -4.45720623E-04  5.84535720E-03  6.28385413E-03 -4.24006535E-03 -1.02807004E-02 -4.02239151E-02  4.62961793E-02  8.52581337E-02  5.75425588E-02  6.55839033E-03 -1.35597885E-02 -7.96321686E-03 -1.71489827E-02 -9.43963788E-03 -8.68184492E-03 -1.16250608E-02 -1.29546167E-03  1.00066932E-02  6.25617849E-03 -8.83094501E-03 -2.57358886E-02 -8.44832063E-02  5.87762333E-02  9.80955735E-02  8.92672166E-02  2.11780798E-02 -2.08597276E-02 -1.66311637E-02 -1.78280007E-02 -1.69387944E-02 -1.68388616E-02 -1.79909368E-03 -1.88932777E-03  1.03452438E-02  1.16126733E-02 -5.07365959E-03 -3.49302515E-02 -0.10734559      9.51596051E-02  8.41222480E-02  9.09029171E-02  7.01320684E-03 -5.63123450E-02 -6.11891747E-02 -8.49226257E-04 -3.34272347E-02  4.22709621E-03  2.79466324E-02  2.89891791E-02  2.06948332E-02  1.48882736E-02 -4.03034594E-03 -4.24123444E-02 -6.82370737E-02
