# vtk DataFile Version 2.0
Volume example
ASCII
DATASET STRUCTURED_POINTS
DIMENSIONS 16 8 1
ASPECT_RATIO 1 1 1
ORIGIN 0 0 0
POINT_DATA 128
SCALARS volume_scalars float 1
LOOKUP_TABLE default
 -3.41846072E-03 -6.31200802E-03 -5.96062560E-03 -5.87589527E-03 -3.22903215E-04 -2.25553242E-03 -9.27253719E-03 -1.35479178E-02 -2.02238671E-02 -2.45384276E-02 -1.66101679E-02 -2.19602068E-03  1.37147475E-02  4.97520380E-02  8.82394165E-02  1.77293585E-03 -6.70578750E-03 -5.03286580E-03 -4.27129446E-03  8.49862350E-04 -3.05848406E-03 -3.82473785E-03 -7.02587003E-03 -1.74787827E-02 -2.35642418E-02 -2.14857329E-02 -1.24542108E-02  1.00387149E-02  5.28248511E-02  0.12803657      0.25384572     -2.01419671E-03 -3.55780101E-03 -3.43200169E-03  9.44142928E-04  1.22565150E-04  9.09468799E-05 -2.36298423E-03 -8.04188941E-03 -1.56406146E-02 -2.21611895E-02 -2.25716326E-02 -5.32721402E-03  2.07198281E-02  7.09502399E-02  0.21389662      0.40176886     -8.83123465E-03 -1.77763146E-03 -8.66996474E-04  7.81119103E-04  2.97942618E-03  7.62557262E-04 -3.77657241E-03 -7.63502019E-03 -1.37041379E-02 -1.86238680E-02 -1.46450484E-02 -7.01359822E-04  3.65776680E-02  0.11874888      0.28702185      0.54067403     -7.98644219E-03 -6.50759903E-04  9.21990024E-04  3.37274250E-04  2.18935404E-03  7.06718653E-04 -4.43683052E-03 -7.78844766E-03 -1.38426041E-02 -1.21157719E-02 -6.50824653E-03  9.91469249E-03  5.45063727E-02  0.13588977      0.34116465      0.64226735     -4.00294131E-03  1.31006178E-03  2.57763965E-03  8.06432497E-03  7.30010727E-03  9.13857296E-03  4.11252584E-03  7.34562613E-03  8.03963398E-04  4.71860869E-03  1.26176598E-02  2.11897027E-02  6.07551299E-02  0.15719596      0.38012332      0.76208681     -1.26155384E-04  2.99950480E-03  9.13646631E-03  1.50848683E-02  1.99289639E-02  2.43960042E-02  2.54007503E-02  3.22011188E-02  2.57316064E-02  2.85152905E-02  3.15466672E-02  4.73483205E-02  2.92606968E-02  0.14833127      0.36169085      0.77578825      2.24187179E-03  1.58378910E-02  2.48727649E-02  1.76734310E-02  3.92364375E-02  5.30716218E-02  5.22710308E-02  4.46985811E-02  5.46748526E-02  5.37188128E-02  5.82982153E-02  8.47526416E-02  7.38669261E-02  5.65235876E-02  0.36171538      0.71255398     -1.57527474E-03
