# vtk DataFile Version 2.0
Volume example
ASCII
DATASET STRUCTURED_POINTS
DIMENSIONS 16 8 1
ASPECT_RATIO 1 1 1
ORIGIN 0 0 0
POINT_DATA 128
SCALARS volume_scalars float 1
LOOKUP_TABLE default
 -3.80830988E-02 -3.83440740E-02 -2.49454062E-02  3.68830469E-03  5.17693609E-02  0.12878688      0.22391407      0.30447221      0.32694536      0.29744765      0.23251155      0.14995980      6.33142665E-02 -8.77985172E-03 -5.03847115E-02  2.24814843E-03 -3.05606779E-02 -3.25156301E-02 -1.67350993E-02  1.71879120E-02  7.22636953E-02  0.15657315      0.26580787      0.34038469      0.35952455      0.32149005      0.23729858      0.13497123      3.96626405E-02 -1.67300422E-02 -3.33102830E-02 -1.71725471E-02 -2.79286765E-02 -1.98409911E-02 -3.66172078E-03  2.04631109E-02  7.93901533E-02  0.17462303      0.29016393      0.37944537      0.40286821      0.35317978      0.24051338      0.11794482      1.77403353E-02 -3.17952707E-02 -3.66990380E-02 -1.74922552E-02 -1.69561207E-02 -1.11649111E-02  5.56629209E-04  3.00063305E-02  7.82480985E-02  0.18169229      0.31634417      0.42613634      0.46025819      0.39273387      0.25939727      0.11614183      3.07241734E-03 -5.43135591E-02 -5.99696785E-02 -1.82572957E-02 -2.24901084E-03 -1.55452755E-03 -3.86738661E-03  2.66741905E-02  7.22792149E-02  0.18982016      0.34582672      0.48065165      0.51961833      0.45107931      0.28618184      0.12036230     -3.14349844E-03 -7.05137625E-02 -8.73129964E-02 -1.12610441E-02  1.57461909E-03  7.42091984E-03  1.01235081E-02  2.60049775E-02  7.12310448E-02  0.18719324      0.37845486      0.53655189      0.58789277      0.50605202      0.32568124      0.13373025     -1.40155349E-02 -8.36603194E-02 -0.11842541      3.84858763E-03  2.31242785E-03  7.40003772E-03  1.36890812E-02  3.08303982E-02  7.51248226E-02  0.18755001      0.38643345      0.54768097      0.60288405      0.51670098      0.33929241      0.24119660      2.91277748E-02 -7.01145753E-02 -0.13164335      1.33679826E-02 -9.65359062E-03  8.87200423E-03 -1.03279427E-02  6.52320310E-02  0.13378197      0.18148084      0.23226200      0.47471273      0.52170247      0.42892757      0.21877593     -6.73716515E-02  0.25705141     -3.47274840E-02 -0.13518323      1.64855625E-02
