# vtk DataFile Version 2.0
Volume example
ASCII
DATASET STRUCTURED_POINTS
DIMENSIONS 16 8 1
ASPECT_RATIO 1 1 1
ORIGIN 0 0 0
POINT_DATA 128
SCALARS volume_scalars float 1
LOOKUP_TABLE default
  0.21837936      0.29102811      0.31404206      0.27942395      0.19684716      0.10731845      3.58733796E-02 -1.91146834E-03  3.28608369E-03  9.22989752E-03  1.51242996E-02  1.37841608E-02  1.74752921E-02  4.88756644E-03  1.11056457E-03 -2.36927103E-02  0.25004154      0.33747351      0.36857495      0.31368086      0.21356902      0.11422450      3.46610621E-02  8.68540071E-03  4.12407611E-03  9.15048551E-03  1.46211535E-02  1.95122976E-02  2.02160440E-02  1.69324558E-02  1.95353627E-02  0.11820351      0.28140154      0.39118853      0.42659575      0.36290079      0.24375081      0.12577134      4.05869037E-02  3.78395827E-03 -6.72290334E-03 -1.21188369E-02 -8.73016939E-03  1.99927459E-03  1.94490291E-02  1.81983542E-02  2.69728769E-02  0.11035937      0.31061852      0.45605358      0.50209069      0.41970760      0.29372144      0.15215422      5.39601147E-02  9.65252344E-04 -2.62808241E-02 -3.44433784E-02 -3.24268565E-02 -2.09670532E-02 -4.45867283E-03  9.71599855E-03  2.50846799E-02  0.10679962      0.34200585      0.52420652      0.56146038      0.49808970      0.33985209      0.18661897      8.01050216E-02  8.07106029E-03 -2.93596033E-02 -4.80755046E-02 -5.40614463E-02 -4.65144739E-02 -2.10730284E-02 -1.20066165E-03  1.70467850E-02  0.10165234      0.36989582      0.55560267      0.64504522      0.55179328      0.37673864      0.22351368      9.82378721E-02  2.51158439E-02 -2.65922528E-02 -6.34240806E-02 -6.91930354E-02 -5.50411195E-02 -3.12521271E-02 -1.75264329E-04  6.81084162E-03  0.10218475      0.34927234      0.52512324      0.65120625      0.56463456      0.39660925      0.22492687      0.13203432      4.21963893E-02 -1.14796236E-02 -4.70225140E-02 -5.43492548E-02 -5.08714244E-02 -1.78275760E-02  6.76960824E-03  2.16222908E-02  0.10266604      0.33192950      0.25078228      0.47749418      0.45663106      0.31207466      0.14792900     -5.24071977E-02  0.13306342      8.14729743E-03 -2.12628394E-02 -1.92407761E-02  7.79220089E-03  1.31853456E-02  6.76407963E-02  6.27944618E-02  0.11585988    
