# vtk DataFile Version 2.0
Volume example
ASCII
DATASET STRUCTURED_POINTS
DIMENSIONS 16 8 1
ASPECT_RATIO 1 1 1
ORIGIN 0 0 0
POINT_DATA 128
SCALARS volume_scalars float 1
LOOKUP_TABLE default
  6.46102801E-03 -1.96848391E-03 -3.99760203E-03  8.82800960E-04  1.01774139E-02  2.20162496E-02  3.07408050E-02  2.56116446E-02  1.34956781E-02 -2.00370722E-03 -1.37406783E-02 -2.03888435E-02 -2.67751832E-02 -3.48908305E-02 -4.01622988E-02 -4.66697756E-03  8.14545993E-03 -1.35827356E-03 -6.36669516E-04 -1.07855815E-03  6.84594410E-03  1.90864932E-02  3.15824263E-02  2.90836524E-02  1.60467476E-02 -1.95699581E-03 -1.51282763E-02 -2.58687660E-02 -3.13043073E-02 -3.71812209E-02 -4.55422476E-02  2.19405163E-02  1.06153348E-02 -7.21377146E-04 -2.87252455E-03 -1.56691438E-03  6.90308958E-03  1.43905999E-02  2.73878127E-02  3.32456417E-02  2.36705299E-02  2.51015322E-03 -1.67835038E-02 -2.87097245E-02 -3.64208184E-02 -4.41654287E-02 -5.38252629E-02  2.11108830E-02  1.08820219E-02  2.37229257E-03 -2.47150613E-03 -1.83382619E-03 -4.58414061E-03  9.77244414E-03  2.50959527E-02  3.66418548E-02  2.99682673E-02  1.12473527E-02 -1.29531948E-02 -2.91816797E-02 -4.09675092E-02 -5.23714721E-02 -6.16209768E-02  2.10973695E-02  1.44536197E-02  2.88637285E-03 -3.28349555E-03 -5.38869062E-03 -8.10738467E-03 -1.23744598E-03  1.91300884E-02  3.96118276E-02  4.51063439E-02  2.38674376E-02  1.53072330E-03 -2.49121971E-02 -4.16372195E-02 -5.61240241E-02 -6.79680184E-02  2.21036021E-02  1.84641164E-02  2.95473379E-03 -4.57315985E-03 -1.36241550E-02 -1.82901528E-02 -1.48457512E-02  1.61645524E-02  4.14741263E-02  5.50463423E-02  4.62179445E-02  1.25414729E-02 -1.47393607E-02 -3.67188379E-02 -5.29380143E-02 -7.68756047E-02  2.83475630E-02  2.13634912E-02  3.19939596E-03 -1.28038367E-02 -2.16899849E-02 -2.95630991E-02 -1.70185678E-02 -1.32916477E-02  3.34159806E-02  5.84877953E-02  5.06572463E-02  2.53432915E-02  2.84072049E-02 -8.19762517E-03 -3.05840075E-02 -6.87030107E-02  3.02499309E-02  1.86699480E-02 -1.24148494E-02  4.31463774E-03 -2.76668612E-02 -3.41324098E-02 -7.58451130E-03  6.29607663E-02 -4.09819558E-02  3.36021110E-02  3.88433933E-02  1.20099671E-02 -2.06036642E-02  9.96635780E-02  2.10857205E-02 -3.39062102E-02  3.26789804E-02
