# vtk DataFile Version 2.0
Volume example
ASCII
DATASET STRUCTURED_POINTS
DIMENSIONS 16 8 1
ASPECT_RATIO 1 1 1
ORIGIN 0 0 0
POINT_DATA 128
SCALARS volume_scalars float 1
LOOKUP_TABLE default
  0.33762240      0.35118464      0.27917665      0.16546857      5.85842207E-02  9.94434580E-03 -5.64441178E-03 -7.55209383E-03 -5.17401751E-03 -1.84935797E-03  1.14386883E-02  1.91581342E-02  3.10049597E-02  3.71633545E-02  4.18372415E-02 -2.75203492E-02  0.40793332      0.40950605      0.30787876      0.18039517      7.03134835E-02  1.71077233E-02 -1.02667082E-02 -1.38201704E-02 -2.25825123E-02 -2.01499201E-02 -7.07373582E-03  4.94496105E-03  2.07481086E-02  3.40591036E-02  4.16143015E-02  0.24485333      0.47652480      0.46354449      0.34612906      0.20336182      8.83257836E-02  3.04591600E-02  3.81178525E-03 -1.38641903E-02 -2.81654410E-02 -3.54821831E-02 -2.83882264E-02 -1.36488946E-02  7.00856792E-03  1.70904119E-02  2.63941083E-02  0.29187611      0.55224127      0.53165960      0.40005216      0.22779402      0.10458519      5.66632561E-02  2.06955411E-02  1.89408718E-03 -2.18707602E-02 -3.44079137E-02 -3.01221143E-02 -2.51795091E-02 -1.43359900E-02 -1.76983001E-03  6.22056331E-03  0.35577044      0.62818450      0.60394448      0.43321964      0.24861237      0.13269874      7.71607980E-02  4.85193618E-02  1.43603226E-02 -9.19679087E-03 -2.45114360E-02 -2.33164467E-02 -2.36654561E-02 -2.09833346E-02 -1.40390797E-02 -5.35365520E-03  0.42312792      0.68248659      0.62522364      0.45845175      0.25975958      0.14252363      9.21848565E-02  5.60673289E-02  2.75926795E-02 -2.30233721E-03 -8.40188190E-03 -9.08332039E-03 -1.23652220E-02 -1.65402442E-02 -1.78044736E-02 -9.55184177E-03  0.48220730      0.66325551      0.58875614      0.46396649      0.25546008      0.14396024      9.42702740E-02  7.72849768E-02  3.05753909E-02  8.45888257E-03  2.59261741E-03  2.93605309E-03 -6.36555720E-04 -4.33547283E-03 -5.47614088E-03  1.27174929E-02  0.52504611      0.53020227      0.38377541      0.29464126      0.23013906      0.14097086      6.65085837E-02 -1.46429697E-02  6.41162992E-02  4.99302661E-03 -2.12196168E-03 -7.41133653E-03 -1.45961111E-02 -1.25856958E-02  2.05083527E-02  6.13950975E-02  0.53843921    
