# vtk DataFile Version 2.0
Volume example
ASCII
DATASET STRUCTURED_POINTS
DIMENSIONS 16 8 1
ASPECT_RATIO 1 1 1
ORIGIN 0 0 0
POINT_DATA 128
SCALARS volume_scalars float 1
LOOKUP_TABLE default
 -4.07371707E-02 -3.28611471E-02 -3.11299984E-04  4.54344116E-02  0.12334138      0.21426851      0.29214424      0.32309356      0.30428630      0.24713670      0.16569403      7.83995688E-02  6.96733594E-03 -3.32731381E-02 -3.05794664E-02  2.04788661E-03 -3.66085693E-02 -2.74833590E-02  9.41001065E-03  6.04243614E-02  0.14190885      0.24094184      0.32895717      0.35522112      0.33067381      0.25742075      0.15419644      6.13397360E-02 -9.87703074E-03 -3.39011624E-02 -1.71908624E-02 -3.19627970E-02 -3.19570117E-02 -1.51720643E-02  1.37256943E-02  6.30181879E-02  0.14857148      0.25762942      0.35386789      0.39574319      0.36707911      0.27317491      0.15710863      4.79431786E-02 -2.31491588E-02 -4.34535407E-02 -3.45191583E-02 -3.68897654E-02 -2.23563164E-02 -1.02172038E-02  1.02596208E-02  6.35737032E-02  0.15036358      0.27236563      0.38878438      0.44102669      0.40970600      0.30672956      0.17104283      4.93123718E-02 -2.10600458E-02 -5.37770614E-02 -5.89790940E-02 -3.36161368E-02 -1.83812957E-02 -3.94624658E-03  5.65337529E-03  5.45453317E-02  0.15080699      0.29279813      0.42352647      0.49462277      0.46755978      0.35090753      0.19368690      6.38038442E-02 -1.78678744E-02 -5.29489964E-02 -7.44750053E-02 -2.05513090E-02 -1.07580274E-02 -1.55978464E-03  9.65599157E-03  5.28606772E-02  0.15669152      0.30236590      0.45805919      0.55623209      0.52118838      0.39601249      0.22228324      8.06962475E-02 -7.88880419E-03 -5.12130186E-02 -0.10119037     -2.11812221E-02 -9.15341359E-03  5.97638078E-03  1.62183512E-02  5.77445365E-02  0.16306347      0.30803916      0.47654513      0.57713616      0.54505134      0.40599763      0.23212823      0.19347791      3.47505957E-02 -3.83098498E-02 -0.10520239     -4.04523220E-03 -1.26066050E-02  5.31886928E-02 -1.14263706E-02  0.10060713      0.22070967      0.31150419      0.34710732      0.45353854      0.45252118      0.33388746      0.12623219     -0.11643960      0.25028357     -5.74869178E-02 -0.14733997     -4.59840614E-03
