# vtk DataFile Version 2.0
Volume example
ASCII
DATASET STRUCTURED_POINTS
DIMENSIONS 16 8 1
ASPECT_RATIO 1 1 1
ORIGIN 0 0 0
POINT_DATA 128
SCALARS volume_scalars float 1
LOOKUP_TABLE default
 -7.68128969E-03 -5.34398435E-03 -2.80531147E-03  1.44161982E-03  2.41214805E-03  8.97296937E-04 -4.11178265E-03 -4.43864148E-03 -1.10889589E-02 -1.45125361E-02  7.04059796E-03  6.93414658E-02  0.20910393      0.42386252      0.66620749      4.60649142E-04 -5.95598714E-03 -5.43568516E-03 -6.05301047E-03 -3.40645015E-03 -3.55528109E-03 -2.65644258E-03 -4.84876987E-03 -1.38982777E-02 -1.23085240E-02 -5.05400682E-03  2.49161888E-02  0.11203392      0.26784378      0.50140691      0.70752054     -6.51352294E-03 -3.03297979E-03 -6.08051196E-03 -9.12857428E-03 -7.36396573E-03 -5.80513058E-03 -5.90959890E-03 -7.08961766E-03 -1.02084111E-02 -3.46335606E-03  1.35414293E-02  4.67710309E-02  0.15138464      0.31067544      0.55090141      0.73452294      2.59120041E-03 -3.27416579E-03 -9.71999299E-03 -8.37827474E-03 -1.01305181E-02 -8.91289022E-03 -5.83416689E-03 -5.35445567E-03 -2.87199742E-03  3.60209215E-03  2.24349238E-02  7.06528202E-02  0.19294123      0.38487431      0.61133361      0.76091754      6.19122526E-03  2.76042474E-03 -4.80030617E-03 -7.54439458E-03 -9.53564793E-03 -5.74682839E-03 -5.75582311E-03 -7.66808633E-04  4.29215748E-03  2.21076347E-02  3.80773619E-02  9.54436287E-02  0.22366759      0.44007838      0.65574920      0.79090911      1.25997076E-02  3.85292782E-03 -1.15560251E-03 -1.54822378E-03  2.86908681E-03  2.68635107E-03  1.62001140E-03  1.30658466E-02  2.32169237E-02  3.58627364E-02  6.05929494E-02  0.11218666      0.24822715      0.47902712      0.70246309      0.78205782      1.71541255E-02  1.71301961E-02  5.64375427E-03  6.98385900E-03  1.34342900E-02  1.30601544E-02  1.66590102E-02  1.80772804E-02  4.04632874E-02  5.78205734E-02  8.42234269E-02  0.13358070      0.21859466      0.48167014      0.71531034      0.78424257      2.12113187E-02  2.16899868E-02  2.34660022E-02  5.48587937E-04  2.58370377E-02  3.60689647E-02  3.30829807E-02  4.60592471E-02  2.66965609E-02  9.33736935E-02  0.12403018      0.15399636      0.15323518      0.30789059      0.63411856      0.68975300      2.90804412E-02
