# vtk DataFile Version 2.0
Volume example
ASCII
DATASET STRUCTURED_POINTS
DIMENSIONS 16 8 1
ASPECT_RATIO 1 1 1
ORIGIN 0 0 0
POINT_DATA 128
SCALARS volume_scalars float 1
LOOKUP_TABLE default
  9.76404101E-02  6.66263476E-02  4.83226813E-02  3.74699198E-02  4.21271324E-02  3.59131359E-02  3.15097198E-02  2.00545993E-02  9.63019673E-03 -1.12377515E-03 -6.98842201E-03 -1.70132425E-02 -3.01117692E-02 -3.40364426E-02 -3.16025615E-02 -1.25497198E-02  0.10156906      5.92360646E-02  3.32412720E-02  1.87182259E-02  1.36968717E-02  9.52832960E-03  1.61299743E-02  1.41764423E-02  9.93040483E-03  1.01848571E-02  6.57405751E-03 -2.10779603E-03 -1.55926598E-02 -1.97654217E-02 -2.57344451E-02  0.20326571      0.12022989      5.60968034E-02  1.63592212E-02 -6.70021819E-03 -1.94361303E-02 -1.06429802E-02  1.67960627E-03  8.96561146E-03  1.11682219E-02  6.06833724E-03  7.25090131E-03  1.26826228E-03 -6.37891516E-03 -7.00831041E-03 -1.47154471E-02  0.21124893      0.12028255      6.70236126E-02  1.01670539E-02 -2.69723143E-02 -4.40491661E-02 -3.49935666E-02 -1.79175865E-02 -3.60834762E-03 -1.10201759E-03  3.94001184E-03  6.14864053E-03  2.94398842E-03 -4.09593992E-03 -4.23539383E-03 -2.61313003E-03  0.20953929      0.13160132      7.28892535E-02  2.68749967E-02 -3.75350341E-02 -4.74664681E-02 -4.64413315E-02 -3.33779231E-02 -1.69885028E-02 -1.06323641E-02 -2.28004577E-03  1.46342965E-03 -1.39179139E-03 -4.87054465E-03 -2.15339751E-04  4.17934358E-03  0.20578408      0.15850787      9.07692164E-02  3.57938111E-02 -2.01621894E-02 -4.74911183E-02 -4.34893630E-02 -3.79824638E-02 -2.69776508E-02 -1.57250818E-02 -1.01411156E-03 -8.04095122E-04  2.84572365E-03 -3.24687199E-03 -4.29302454E-03 -5.54367667E-03  0.19149503      0.17400147      0.12329108      5.82411848E-02 -2.17492366E-03 -3.19096148E-02 -3.12613100E-02 -2.47268379E-02 -1.53235700E-02 -9.05244029E-04  1.68874301E-03  8.43696482E-03  1.72352921E-02 -9.45558015E-04 -1.24365753E-02 -1.64789017E-02  0.17930368      0.23766470      6.29905760E-02  0.11425363      9.87770036E-03 -2.08740328E-02 -2.42237234E-03  2.05529593E-02 -1.13151444E-03  2.09641419E-02  3.19974013E-02  2.01936364E-02 -5.84799657E-03  1.70662161E-02 -2.69527994E-02 -5.43920621E-02  0.18737428    
